108
Lattice="10.810039342430525 0.0 0.0 0.0 10.810039342430525 0.0 0.0 0.0 10.810039342430525" Properties=species:S:1:pos:R:3:force:R:3:Z:I:1 pbc="T T T" config_type=binary_alloy_simple_relaxed energy=-799.53660546 virial="-12.272839529545573 1.1870400852867113 0.5082288043681695 1.1870400852867113 -6.326318916511696 0.5991417386693564 0.5082288043681695 0.5991417386693564 -9.837215419505325"
Fe -0.092538 10.7588 0.0635298 1.46611015 0.3592012 0.13887671 26
Fe 0.101724 1.87797 1.9046 -0.58920276 0.48823404 -0.45130737 26
Fe 1.72319 -0.0226351 1.90315 0.00582881 0.77647347 -0.13408175 26
Ni 1.8263 1.93647 10.8913 -0.28144712 -0.51000724 0.08482539 28
Fe -0.0571804 10.7967 3.75551 0.73319565 -0.2561131 0.17578159 26
Fe 10.9378 1.83094 5.38923 -0.30075662 -0.28640442 -0.07198719 26
Fe 1.86356 10.7833 5.50844 -0.2192583 -0.34880854 -0.97776041 26
Ni 1.81915 1.98756 3.57421 0.34639063 -0.8714443 0.64472234 28
Fe 10.7245 0.00544312 7.12443 0.1801479 -0.79493993 -0.02223385 26
Fe 0.0459917 1.70996 9.1436 -0.20694662 1.03922231 0.02717814 26
Fe 1.68052 -0.0804012 8.96029 1.28457362 0.34966865 0.39465766 26
Fe 1.75672 1.61107 7.24531 0.11903815 1.43145054 0.39213519 26
Ni 0.0824469 3.78595 10.9161 -0.77619007 -1.35592132 -0.39518762 28
Fe 0.106142 5.3921 1.8504 -0.69675206 0.49497761 0.45567863 26
Ni 1.84136 3.67532 1.83245 0.25992907 -0.26491024 0.5024722 28
Fe 1.80739 5.37186 0.170643 0.81268268 0.6202963 -1.33631627 26
Ni 0.0315653 3.63896 3.77238 -0.01792891 0.1767801 -0.87309182 28
Fe 10.8249 5.47273 5.31386 0.62645402 0.40296589 0.49735663 26
Ni 1.81801 3.6215 5.44547 0.28173536 0.18426191 -0.33548417 28
Fe 1.94184 5.54152 3.52517 -0.50854182 -0.23378369 0.52741724 26
Fe 10.9033 3.57662 7.13224 -0.06387731 0.21316447 1.1818597 26
Fe 10.8892 5.51446 9.06793 -0.3176113 -0.39103405 -0.06971085 26
Fe 1.75392 3.65381 9.06126 0.17228365 -0.61355794 0.2482844 26
Fe 1.80517 5.32577 7.30087 0.14682905 1.20112972 -0.56634148 26
Fe 10.9371 7.19835 10.8681 -0.24081194 0.79609926 0.25922343 26
Ni 0.0604492 9.04134 1.87872 -0.12271044 -0.79682235 -0.05354415 28
Ni 1.97441 7.228 1.75579 -1.28007542 0.65511483 0.65317754 28
Fe 1.85517 9.09731 10.8095 -0.47413363 0.17867141 0.03482004 26
Fe 10.8039 7.34254 3.64262 0.1467076 -0.3145733 -0.52026431 26
Ni 0.157095 9.01969 5.46248 -0.97010735 -0.14619475 -0.13541903 28
Fe 1.95611 7.33345 5.36605 -0.49534764 -0.75449738 0.8871695 26
Fe 1.95115 8.87079 3.60799 -1.11942764 1.20258402 0.2403043 26
Fe 0.144976 7.26361 7.21724 -0.39536708 0.04743418 -0.18831124 26
Ni 10.8685 8.98775 8.99486 -0.48731248 -0.28829138 -0.03478729 28
Ni 1.88549 7.29918 9.02166 -0.21294859 -0.38776371 0.03532199 28
Ni 1.94636 8.97825 7.19322 -0.3084586 0.17463141 0.17616302 28
Fe 3.58362 10.945 10.867 0.06484178 -0.56653606 -0.10418431 26
Fe 3.64081 1.88401 1.90944 -0.39113944 -0.55297574 -0.21058206 26
Ni 5.53615 -0.0194871 1.80383 -1.31197489 0.93900935 0.0156275 28
Ni 5.47572 1.85268 0.0215279 -0.22746588 -0.59947934 0.45188285 28
Fe 3.58174 10.8788 3.6677 0.32708664 0.24093424 0.04033078 26
Fe 3.56122 1.83676 5.58084 0.36682438 0.37230944 -0.65999494 26
Ni 5.36317 10.9412 5.51443 0.56094802 -0.66650467 -0.29906443 28
Fe 5.49401 1.84219 3.78695 -0.97045981 0.41388747 -0.40026206 26
Ni 3.69027 3.496e-05 7.17861 -0.27847906 0.03307796 0.73146978 28
Fe 3.56729 1.83693 9.11448 -0.41883813 0.16862161 -0.74599749 26
Fe 5.32665 10.9187 8.93865 0.00630263 0.2503817 1.11363828 26
Ni 5.47753 1.90894 7.21459 -0.7979892 0.0653583 0.17488969 28
Ni 3.65804 3.65427 10.9092 -0.53097658 -0.42304361 -0.43469617 28
Fe 3.69382 5.53038 1.72415 0.4021344 -0.35883325 0.70166099 26
Fe 5.32313 3.48361 1.8519 1.25800976 0.77085917 0.35722941 26
Fe 5.52089 5.29651 10.9289 -0.31459797 0.93425515 -0.68865541 26
Fe 3.66053 3.74845 3.68515 0.00907479 -0.62306661 -0.07483773 26
Fe 3.55028 5.4669 5.4695 0.41604916 0.01081401 -0.07343652 26
Fe 5.50214 3.78717 5.49068 -0.46649779 -0.68146187 -0.36700284 26
Fe 5.51935 5.59421 3.59784 -0.74334566 -0.8708378 -0.79973022 26
Ni 3.47278 3.63415 7.24549 0.76296855 -0.48100994 0.33385133 28
Fe 3.67681 5.47903 9.08772 -0.26582194 -0.63940868 0.57072587 26
Fe 5.43688 3.44619 9.15921 0.05978173 0.84494827 -0.70407882 26
Fe 5.42718 5.28147 7.28217 0.04414017 0.35099022 0.49875937 26
Fe 3.49166 7.36044 10.8508 1.36703036 -0.12471204 -0.77142534 26
Fe 3.55034 9.17592 1.87746 1.12697085 -0.10709999 -0.45386539 26
Fe 5.45168 7.45304 1.6325 -0.07053648 -0.71446585 0.53810168 26
Fe 5.50469 9.18086 -0.0600309 -1.08161138 0.11540844 -0.28794017 26
Ni 3.65138 7.29456 3.60152 1.1315878 -0.43469779 -0.30364748 28
Fe 3.75137 9.03314 5.43069 0.68712045 -0.05132586 0.3016703 26
Fe 5.55317 7.09546 5.42076 -1.23732306 0.56657324 0.21423854 26
Fe 5.5201 9.07624 3.61308 -0.49933329 -0.37387879 -0.04510446 26
Fe 3.74119 7.20918 7.31811 -0.3653503 -0.07464799 -0.36250503 26
Ni 3.68189 8.96901 8.92989 -0.30385568 0.75903226 0.82117506 28
Fe 5.52342 7.26822 9.2365 -0.26768313 -0.82508337 -0.22369235 26
Fe 5.54485 8.9799 7.41849 -0.35482162 0.18169868 -1.35946322 26
Fe 7.29882 10.9903 10.898 -0.00867802 -0.68313251 -1.05276746 26
Fe 7.29963 1.73922 1.82894 -0.17283812 0.80264147 0.61868452 26
Fe 9.16783 10.7894 1.91292 -0.46759929 0.42987764 0.15954111 26
Ni 9.03068 1.78798 10.8929 1.04034808 0.64239775 0.27032364 28
Fe 7.08517 0.106195 3.63748 1.30043284 -0.37582195 0.30730651 26
Ni 7.25848 1.78338 5.46105 -0.00516673 0.4202994 0.30496825 28
Ni 8.83715 -0.0106402 5.43943 0.81785181 0.01973775 -0.09312321 28
Fe 9.06944 1.87763 3.7533 -0.21100541 -0.1876129 -0.05420324 26
Fe 7.08509 10.8976 7.34038 0.82448349 0.0779964 -1.02127562 26
Fe 7.38786 1.7993 9.10727 -0.5506371 0.18557578 -0.13437959 26
Fe 9.10197 10.7283 9.03757 0.20880207 0.65239046 0.17968939 26
Fe 9.09176 1.76774 7.28457 -0.12410925 -0.13826673 -0.61843092 26
Fe 7.34361 3.61245 10.9514 -0.19400951 -0.53806047 -0.65967383 26
Fe 7.21487 5.40494 1.76127 -0.26406477 0.24645379 0.79069671 26
Ni 8.99268 3.67151 1.89837 0.75719218 -0.82226721 0.08943555 28
Ni 9.04953 5.37532 11.0354 0.32869908 0.7143867 -1.19118649 28
Fe 7.28103 3.59105 3.62608 -0.11202255 0.21270274 0.11920538 26
Fe 7.32754 5.43749 5.36054 0.17422189 -0.539369 0.46439769 26
Fe 9.10388 3.63914 5.63338 -0.7214031 -0.35331148 -1.54796932 26
Fe 9.12151 5.51688 3.50262 -0.6168409 -0.24520172 0.42985072 26
Fe 7.23724 3.50729 7.27908 0.35020936 0.55534896 0.00862065 26
Fe 7.32176 5.3966 9.01575 -0.03515772 -0.31725715 0.42344056 26
Fe 9.16621 3.64395 9.00188 0.10406404 0.06231635 0.44819165 26
Ni 9.12246 5.3974 7.10744 -0.43348674 0.82356924 1.11084136 28
Ni 7.28086 7.24937 10.8512 0.33503975 -0.10860737 -0.74588293 28
Fe 7.24092 9.20744 1.62641 0.36306998 -0.79996834 1.28513192 26
Fe 8.85489 7.2942 1.73284 1.33963266 0.09381434 0.61510126 26
Ni 9.10347 9.08269 0.0948836 -0.08387636 -0.84273032 -0.62797368 28
Ni 7.23653 7.24346 3.61182 0.02332601 0.09325715 -0.85044277 28
Fe 7.19827 8.94573 5.40015 -0.53471558 0.96899178 0.85295404 26
Fe 8.90285 7.26987 5.47386 0.99464864 0.0149544 0.28528862 26
Fe 8.91962 8.99077 3.66134 0.24143304 0.36125877 -0.12476342 26
Ni 7.06377 7.12736 7.24955 1.3145002 0.08888849 0.4267634 28
Fe 7.32121 9.16236 9.04726 0.2333351 -0.90479287 0.5960478 26
Fe 9.08947 7.20204 9.02799 -0.27817607 0.27199054 -0.10742074 26
Ni 9.01435 9.11763 7.1757 -0.12696584 -0.90883381 0.15633068 28
108
Lattice="10.828496883981131 0.0 0.0 0.0 10.828496883981131 0.0 0.0 0.0 10.828496883981131" Properties=species:S:1:pos:R:3:force:R:3:Z:I:1 pbc="T T T" config_type=binary_alloy_simple_relaxed energy=-858.19609843 virial="-0.8986542707732241 2.31474267456643 -0.9539514379321211 2.31474267456643 -6.054042743697046 0.5626839692139827 -0.9539514379321211 0.5626839692139827 -0.5062463446353664"
Fe 0.0457239 10.932 0.0897031 0.02425758 -0.06300334 -0.07117668 26
Fe 0.0836555 1.76615 1.86434 -0.07446925 0.52815384 -0.2338379 26
Fe 1.90411 0.0438668 1.88829 0.22697107 -0.0417467 0.21599609 26
Fe 1.98698 1.81178 10.9296 -0.9406182 0.26538847 -0.59704925 26
Fe 0.143714 10.8452 3.67624 -0.42830012 0.15583242 0.21343269 26
Fe 10.9823 1.91436 5.43425 -0.16719744 -0.59344842 0.17840345 26
Fe 2.00802 10.8724 5.44072 -0.29562659 0.19282407 0.0300731 26
Fe 1.859 1.8571 3.60891 0.61188941 -0.17094567 0.4895519 26
Fe 10.9091 0.0768836 7.25229 0.32244866 -0.39391283 -0.66105054 26
Fe 0.0330245 1.83085 8.94327 0.24481338 -0.04526137 1.06722373 26
Fe 1.83606 -0.0489957 9.12398 0.26205368 0.54183947 -0.43966598 26
Fe 1.90029 1.87035 7.29085 0.46356072 -0.42014513 -0.12116229 26
Fe 0.00319515 3.69451 10.8742 0.70226055 -0.83496877 0.64503643 26
Fe 0.0759247 5.54204 1.96497 0.20750287 -0.18744988 0.26310296 26
Fe 1.86766 3.61036 1.89592 -0.46170461 0.53101856 -0.39047809 26
Fe 1.70822 5.46595 0.146687 0.69458221 -0.30602585 -0.40100025 26
Fe 0.0367138 3.57945 3.64296 0.08538452 0.91547247 -0.22026051 26
Fe 10.9006 5.44051 5.46826 -0.20233437 0.045317 -0.35229474 26
Fe 1.88808 3.71274 5.37748 0.05434234 0.00891058 -0.03599734 26
Ni 1.85419 5.54089 3.68705 1.096e-05 -0.16663052 -0.30067634 28
Fe 10.9049 3.7115 7.25555 -0.10993422 -0.27059763 -0.15953142 26
Fe 10.946 5.45913 9.08719 -0.39634013 0.51705531 -0.2365829 26
Fe 1.81249 3.62462 9.10521 0.43153259 -0.10686156 0.41196683 26
Fe 1.84171 5.47517 7.27961 -0.04486395 0.20277235 0.01007078 26
Fe 10.8833 7.34491 10.8461 0.07636909 -0.2094372 0.63027737 26
Fe 0.0818932 9.02388 1.91103 -0.29838882 -0.05194326 0.17827025 26
Ni 1.9481 7.26337 1.82297 -0.72108134 -0.00655352 0.73625174 28
Fe 1.83043 9.14995 10.9499 0.07918141 -0.55773772 0.18241329 26
Ni 10.9295 7.2743 3.71938 -0.29124848 -0.13270379 -0.26071955 28
Fe 0.0852037 9.07044 5.39717 -0.09542348 0.23784691 0.00039279 26
Fe 1.84005 7.29845 5.51457 0.12703232 -0.23787386 -0.61106102 26
Fe 1.90294 9.03403 3.63378 0.36077249 -0.08119114 0.24717141 26
Fe 0.0394253 7.29639 7.22567 -0.05214896 -0.23624625 0.39191688 26
Fe 10.8486 9.10072 9.07255 0.06229798 -0.09705447 -0.28375047 26
Fe 1.823 7.3458 9.07702 -0.2929294 -0.02150924 0.12661561 26
Fe 1.88161 9.11672 7.23983 -0.21513872 0.15099374 0.06025682 26
Fe 3.66138 10.8397 10.8347 0.62753532 -0.0128864 0.45814984 26
Fe 3.65678 1.88263 1.88257 0.9827251 -0.31618924 -0.15233349 26
Fe 5.543 0.120117 1.91522 -0.59662351 0.14999864 -0.01862732 26
Fe 5.54534 1.86179 0.0132986 -0.48698912 -0.35947555 0.19334598 26
Ni 3.72272 10.9502 3.68582 0.21890108 -0.28202405 -0.13815469 28
Fe 3.69626 1.95667 5.43378 0.01020089 -0.44536604 -0.07153543 26
Fe 5.46039 10.9065 5.49998 -0.41632987 0.09270849 -0.69701911 26
Ni 5.46918 1.96753 3.67501 -0.15754033 -0.53810646 -0.03653737 28
Fe 3.74033 0.0103108 7.31344 -0.15823746 0.3866582 0.2870684 26
Fe 3.74054 1.81288 9.13199 -0.21836666 0.16780087 -0.44848592 26
Ni 5.50484 10.7693 9.13802 0.17445837 0.36413109 -0.1112649 28
Fe 5.48373 1.90922 7.30301 -0.52361359 -0.18898443 0.43399775 26
Ni 3.66837 3.64865 10.855 -0.21522273 0.28507462 0.01356064 28
Fe 3.63942 5.39653 1.79922 -0.28373091 0.2130546 0.13918078 26
Fe 5.45763 3.66826 1.85716 0.04158344 -0.04846259 -0.45972292 26
Fe 5.46494 5.49515 10.8428 -0.40549164 -0.30947733 0.60077441 26
Fe 3.69009 3.73462 3.56917 0.08901458 0.32404405 0.85557177 26
Fe 3.65513 5.49997 5.53362 -0.09769052 0.06182533 -0.47451446 26
Fe 5.43434 3.71612 5.53991 0.26712781 0.26495458 -0.3658967 26
Fe 5.51282 5.54013 3.68795 -0.12627674 -0.69391651 -0.38844094 26
Fe 3.59311 3.70271 7.2541 0.22988557 -0.1928609 0.71098013 26
Fe 3.55055 5.556 9.0891 -0.18666819 -0.38309436 0.45971344 26
Fe 5.44974 3.73537 9.14784 -0.42672786 -0.11169786 -0.54088796 26
Fe 5.46705 5.49957 7.39429 0.01408425 0.07477629 -0.36467633 26
Fe 3.59459 7.23659 10.969 0.03957427 0.4249263 -0.42917962 26
Fe 3.66576 9.09324 1.92294 0.34614334 0.24610584 -0.19082991 26
Fe 5.4272 7.26138 1.8198 0.44250706 -0.34380216 -0.13522902 26
Fe 5.51005 9.10411 0.116724 -0.22255304 -0.05438121 -0.19996132 26
Fe 3.70946 7.18139 3.65177 -0.58010563 0.09265354 -0.09663182 26
Fe 3.71657 9.03583 5.46528 0.15137705 0.18192323 -0.73716396 26
Fe 5.48946 7.22866 5.4617 0.09597699 0.05701934 0.69758106 26
Fe 5.49899 9.00741 3.63226 -0.15122472 0.93004011 0.02920233 26
Fe 3.63725 7.344 7.26907 0.26289309 -0.41856605 0.23790313 26
Fe 3.68108 8.95372 9.12539 0.3010461 0.45667836 0.29137496 26
Fe 5.49732 7.20544 9.1729 -0.15011999 0.57015275 -0.30027786 26
Fe 5.44307 9.07201 7.29284 0.50109522 -0.31739583 0.3500501 26
Ni 7.28432 10.9108 10.9133 0.08755644 -0.05300677 -0.4130538 28
Fe 7.3184 1.88289 1.84133 -0.77626789 -0.07453415 0.15179377 26
Fe 9.06582 10.9224 1.95623 -0.15445745 -0.23943578 -0.35230615 26
Fe 9.08355 1.84921 10.8954 -0.15040496 -0.32537656 -0.48701435 26
Ni 7.16934 0.177814 3.71912 0.34243158 -0.5112589 -0.16734308 28
Fe 7.1988 1.84194 5.51215 0.21424594 0.36187377 -0.22357365 26
Fe 9.0872 0.0187032 5.39686 -0.02827669 0.40393593 -0.34180012 26
Fe 9.07308 1.89019 3.6562 -0.167369 -0.48467731 0.61713316 26
Fe 7.27357 10.8906 7.27838 -0.24967851 -0.35428692 0.2337045 26
Fe 7.26252 1.86026 9.00623 0.29383173 -0.36579109 0.44971245 26
Fe 9.0871 10.8311 9.10675 -0.29129233 0.40580584 -0.13749548 26
Fe 9.10532 1.76174 7.18954 -0.16613879 0.37006059 0.23897063 26
Fe 7.23232 3.69186 10.8115 0.71677765 -0.12574372 0.08556481 26
Fe 7.32303 5.37516 1.86824 -0.61670532 0.30137495 0.01264503 26
Fe 9.08136 3.59576 1.83356 0.38486354 0.28615835 0.04506987 26
Fe 9.14856 5.52521 11.0184 0.14030666 -0.22672136 -0.69575629 26
Fe 7.24918 3.62982 3.64881 -0.09274548 0.10056038 0.56822204 26
Fe 7.30631 5.43881 5.46811 0.0025421 0.00429925 0.50445628 26
Fe 9.0764 3.61846 5.52099 -0.08897884 0.22332737 -0.21977132 26
Fe 9.03984 5.42715 3.67666 0.31806331 0.08400609 0.09261926 26
Fe 7.31617 3.69131 7.33355 0.04996009 0.08967538 0.13430749 26
Fe 7.33958 5.51096 9.14341 0.35670724 -0.31032371 -0.24929325 26
Fe 9.18693 3.65661 9.15415 -0.60512258 0.03025685 -0.51984985 26
Ni 9.07322 5.40372 7.3356 0.28763233 0.27455968 -0.28736333 28
Fe 7.30525 7.24181 10.9334 0.21987112 0.29045429 0.12033778 26
Fe 7.28823 9.12633 1.80313 0.02025202 0.10313592 0.33273463 26
Fe 9.03183 7.2299 1.94495 0.34784017 0.65000315 0.04093038 26
Fe 9.14354 9.09723 0.0433637 -0.5007426 0.04003632 0.7439392 26
Fe 7.21249 7.34062 3.67066 0.66354844 -0.61728768 -0.02606996 26
Fe 7.22886 9.11523 5.4964 0.11109896 -0.06429149 -0.26191507 26
Fe 9.10372 7.21907 5.51993 -0.23185094 0.14904718 -0.61737245 26
Fe 8.99978 9.09815 3.61358 0.21633742 -0.19634019 0.4300291 26
Fe 7.30978 7.28202 7.29533 -0.14311913 -0.20781015 -0.21489311 26
Fe 7.30165 9.01637 9.09871 -0.07675665 0.44324538 0.16063112 26
Fe 9.08783 7.23636 9.04605 0.41754288 0.14288129 0.038689 26
Fe 9.11436 9.11726 7.21329 -0.19363524 0.01417145 0.11016818 26
108
Lattice="10.864776435855248 0.0 0.0 0.0 10.864776435855248 0.0 0.0 0.0 10.864776435855248" Properties=species:S:1:pos:R:3:force:R:3:Z:I:1 pbc="T T T" config_type=binary_alloy_simple_relaxed energy=-853.89826031 virial="-3.229058352514672 3.0907363533422934 1.3142394689847168 3.0907363533422934 -3.445944094147319 -2.7887397366180884 1.3142394689847168 -2.7887397366180884 -3.407461532987876"
Fe -0.0805959 10.8935 -0.0590888 1.06791095 0.88851626 0.08487316 26
Fe 0.00762659 1.82689 1.76437 0.09359109 0.15892435 -0.35373794 26
Fe 1.86172 -0.0491418 1.66934 -0.10533865 0.55462602 -0.09335713 26
Fe 2.00024 1.86704 10.902 0.02676834 0.01606875 -0.36039897 26
Fe 0.0783437 11.0463 3.46638 -0.38323287 -1.00241764 0.80309575 26
Ni 11.0032 1.97818 5.45373 -0.95293702 -1.17096679 0.17658097 28
Fe 1.83992 10.9142 5.34736 -0.34487991 -0.34074791 1.08873254 26
Fe 1.82131 1.67036 3.61668 0.05465971 1.37889825 -1.31182739 26
Fe 11.0772 0.12527 7.28554 -0.99501764 -0.02895964 0.0456721 26
Fe 0.126132 2.1854 9.36366 -0.05513599 -0.73413642 -0.76303264 26
Fe 1.9229 0.0680753 9.00296 0.03477626 -0.09677889 0.61633468 26
Fe 1.84895 1.88444 7.30891 -0.29783919 -0.19770302 0.42510963 26
Fe 0.0649665 3.73087 11.1715 -0.71978372 0.25257604 -0.48375642 26
Fe 0.0902259 5.52087 1.94937 -0.94711598 -0.37745456 0.47896429 26
Fe 1.88925 3.74878 1.68318 0.32263512 -1.03359131 1.50809373 26
Fe 1.90487 5.58483 0.269447 0.27279156 0.18695299 -0.81882042 26
Fe -0.0721507 3.60396 3.60955 0.72691787 -0.17992083 -0.70965143 26
Fe 10.8531 5.44382 5.34402 -0.07910621 -0.08082729 0.53733562 26
Fe 1.7697 3.52431 5.30044 0.33705936 1.05592619 0.38671296 26
Fe 1.97755 5.50436 3.80901 -0.71897805 -0.74471101 -0.91582229 26
Fe 10.9822 3.72306 7.3864 -0.07919465 -0.51167733 -0.9910742 26
Fe 10.8897 5.29665 9.20875 0.06701817 0.68429321 0.21798541 26
Fe 1.98865 3.96489 9.21589 0.07282948 -1.24167152 0.5624187 26
Fe 1.81904 5.45895 7.24118 -0.39004063 0.22613422 -0.08647299 26
Fe 10.811 7.24986 11.0005 0.9792601 -0.12579694 -0.32953326 26
Ni 0.169824 9.09963 1.7462 -1.07437572 -0.22704693 0.97157308 28
Fe 1.86688 7.21306 2.07074 0.76754783 0.52489745 -0.75853522 26
Fe 1.76357 9.09945 10.9007 0.84563879 -0.81917104 -0.48954072 26
Fe 10.8289 7.32863 3.57628 -0.57806751 0.44134836 0.29894717 26
Fe -0.0754778 9.10527 5.34515 0.69170653 0.04900484 0.24191372 26
Fe 1.73713 7.21704 5.50635 0.28045803 0.94336073 -0.49668095 26
Fe 1.86614 9.07197 3.55707 -0.44227047 -0.01503572 0.99686064 26
Fe -0.0191634 7.29958 7.30147 0.1065701 -0.75478541 -0.43927697 26
Fe 11.0751 8.93079 9.00978 -0.83229094 0.98545389 0.29090152 26
Fe 1.82855 7.10116 9.12448 0.06567838 0.11531079 0.1030682 26
Fe 1.82128 9.08347 7.09785 0.52334753 8.156e-05 0.50970859 26
Fe 3.76724 10.8003 10.7403 -0.41136154 0.19310086 -0.31824066 26
Fe 3.69461 1.67182 1.81612 0.28333629 1.14432239 -0.30721043 26
Fe 5.31362 -0.0575482 1.74535 1.34787252 0.12607592 0.07940664 26
Fe 5.5914 1.86198 -0.0516637 -0.48876634 0.30146807 0.75381596 26
Fe 3.56538 10.8678 3.55982 0.60391176 0.39986792 0.79030846 26
Fe 3.51749 1.81095 5.49748 0.81089042 -0.67125865 -0.05603812 26
Fe 5.43076 10.9241 5.4968 -0.10268614 0.09627352 0.4711615 26
Fe 5.48171 1.83195 3.78899 -0.51041927 -0.47188032 -1.04859917 26
Fe 3.8878 -0.0932965 7.35366 -1.14331432 0.28057286 0.19376988 26
Fe 3.80953 1.95463 8.96782 -1.00740986 -0.57775826 0.67365961 26
Fe 5.64052 11.0594 9.12276 -0.61864631 -1.42886773 -0.49848171 26
Ni 5.40687 1.88751 7.21467 0.41671558 0.00547312 0.32530375 28
Fe 3.88819 3.71056 10.9719 -0.54706399 -0.3341278 0.40767548 26
Fe 3.84777 5.4068 1.93055 -0.12402522 0.8917094 0.1654769 26
Fe 5.5839 3.6594 1.95789 -0.05009386 -0.42715051 0.06530085 26
Fe 5.56061 5.57062 10.8564 0.31218463 -0.01713254 1.23625249 26
Fe 3.55168 3.53933 3.50277 0.61897484 0.11483614 0.51850813 26
Fe 3.63676 5.44402 5.5222 0.49465958 -0.35631785 -0.57785826 26
Fe 5.30657 3.58265 5.54043 0.37859624 0.58090034 -0.71597422 26
Fe 5.60742 5.53047 3.64253 -0.27676089 -0.36129307 0.90392065 26
Fe 3.42802 3.61314 7.18587 0.8297705 0.656078 0.48797246 26
Fe 3.77395 5.49338 9.15739 -1.14281006 0.4677504 -0.20823024 26
Fe 5.3286 3.77781 9.09517 1.39592907 -0.6252511 -1.02431538 26
Fe 5.41277 5.57309 7.26023 -0.07355285 -1.15532637 0.00112029 26
Fe 3.65622 7.27378 11.0066 -0.07866509 0.19415288 0.20516269 26
Fe 3.67049 9.07252 1.89071 -0.04136371 -0.75123175 -0.57811649 26
Ni 5.5039 7.38778 2.00541 -0.01494062 -0.12685178 -0.70550297 28
Fe 5.48731 8.91044 -0.0740725 -0.35054286 0.61380399 0.29162238 26
Fe 3.77505 7.25009 3.86365 -0.14693772 0.49037918 -0.74083998 26
Fe 3.71159 9.20603 5.45228 -0.55548838 -0.73869006 0.43859089 26
Fe 5.4681 7.33705 5.53915 0.15501656 0.09251864 -0.56658448 26
Fe 5.4331 9.25879 3.73171 0.48188851 -0.76076571 -0.64822851 26
Fe 3.63969 7.20172 7.32181 -0.68112982 0.83432536 -0.56931366 26
Ni 3.5443 8.93261 9.11076 0.069892 0.27549354 -0.30283345 28
Fe 5.39292 7.26818 9.12236 0.74969519 -0.35998426 -0.08279815 26
Fe 5.57848 8.93987 7.39023 -0.58194949 0.95178268 0.41324552 26
Fe 7.24455 10.9119 10.9025 0.75425044 -0.52851166 0.07647069 26
Fe 7.22102 1.77636 1.84888 -0.13768803 -0.24761227 0.67157702 26
Fe 9.06975 10.7961 1.94104 -0.04604344 0.98491708 -1.46927044 26
Fe 8.95433 2.00947 10.9321 0.63465674 -0.71849544 0.56394083 26
Fe 7.29102 -0.0316267 3.72816 -0.32530242 -0.00450008 -0.75673015 26
Fe 7.2531 1.68331 5.47674 0.12165404 0.56843392 0.27312104 26
Fe 9.14085 -0.0384774 5.52064 0.56688321 0.70588836 -0.2529172 26
Fe 9.05239 1.73984 3.63163 0.17747886 0.14863437 0.30458464 26
Fe 7.30335 10.9608 7.28942 -0.19296657 -0.19180869 0.42492136 26
Fe 7.43911 1.84292 9.07135 -0.82890395 0.74046428 -0.61346977 26
Fe 9.20432 10.9413 9.07461 -0.05121915 0.13591872 -0.62360667 26
Fe 9.12986 1.95216 7.19634 0.82085843 -0.43631347 0.93098439 26
Fe 7.21004 3.67591 10.9572 -0.23539501 0.66866159 -0.0103041 26
Fe 7.36305 5.52896 1.94873 -0.36535207 0.18624926 -0.22962295 26
Ni 8.95759 3.61272 2.02443 0.14291302 0.34026393 -0.58371028 28
Fe 9.03627 5.44731 11.0064 -0.29198155 -0.34266859 0.289717 26
Fe 7.29961 3.60386 3.86066 -0.27962661 0.38466246 -0.3175564 26
Fe 7.24376 5.59303 5.56498 0.22906637 -0.96693632 -0.92462291 26
Fe 9.05754 3.50475 5.44926 0.34015419 0.80645259 0.06128561 26
Fe 9.13168 5.53573 3.69364 -0.91869735 -0.07126961 0.11724315 26
Fe 7.21632 3.59553 7.16031 -0.13896817 0.43583802 0.51884253 26
Ni 7.27409 5.38069 9.04654 -0.19662624 0.32975972 0.01851599 28
Fe 9.00175 3.73173 9.16488 0.32152209 -0.1737247 -0.44639637 26
Fe 9.14935 5.37804 7.2628 -0.25450973 -0.02782482 -0.23561166 26
Ni 7.23532 7.20791 10.8362 0.75224195 0.25870489 0.36532957 28
Fe 7.28243 9.06389 1.73182 -0.38023736 0.20083641 0.17685961 26
Ni 9.08435 7.38037 1.71482 -0.15086128 -0.07070961 0.88507277 28
Fe 9.22172 9.2157 0.0666152 -0.79301453 -1.12064129 -0.67382083 26
Fe 7.36605 7.43455 3.62441 -0.0216535 0.32715226 0.50312143 26
Fe 7.22422 9.15048 5.56012 0.33060733 -0.10123391 -0.47073378 26
Fe 8.95886 7.35711 5.59821 0.72120874 0.05252826 -0.80196163 26
Ni 9.12642 9.23573 3.54202 0.03633451 -1.30634923 0.67721825 28
Fe 7.20098 7.19283 7.3422 1.30889299 0.40104954 0.83618175 26
Fe 7.35588 9.05275 9.18483 0.3786795 0.03790899 -0.33133173 26
Fe 9.20275 7.11058 9.14053 -0.7242104 0.45802885 -0.21788416 26
Fe 9.06157 9.1396 7.29286 0.35288952 -0.18972496 0.84809121 26
108
Lattice="10.687586724806248 0.0 0.0 0.0 10.687586724806248 0.0 0.0 0.0 10.687586724806248" Properties=species:S:1:pos:R:3:force:R:3:Z:I:1 pbc="T T T" config_type=binary_alloy_simple_relaxed energy=-638.91597611 virial="-10.851088900220653 2.699681539073567 2.8582959488153032 2.699681539073567 -14.994024823928576 -1.1659288426601262 2.8582959488153032 -1.1659288426601262 -10.705365458879099"
Fe -0.0415043 10.7921 0.00126193 0.61702214 -1.31096697 -0.00085737 26
Ni 0.0375877 1.70862 1.62691 -1.02848535 0.58758705 0.98186209 28
Ni 1.715 -0.0524779 1.81326 0.12800922 -0.20713695 -0.94450937 28
Ni 1.86932 1.78221 10.7987 -0.17856206 0.19638466 -1.16160872 28
Ni -0.147798 10.5589 3.54305 0.2560515 0.25374502 -0.53891629 28
Ni 10.4866 1.64795 5.29271 1.06320257 0.6534295 -0.1756241 28
Ni 1.62236 10.6229 5.23593 0.86018482 0.31875335 0.48306496 28
Ni 1.68345 1.62753 3.3762 0.36208456 0.38680778 1.09474348 28
Ni 10.7348 0.0907846 7.1378 -0.33825444 -0.8779209 -0.12197282 28
Ni -0.114349 1.63222 8.9801 0.69215161 1.41044128 -0.64029326 28
Ni 1.84132 -0.0225425 8.89264 -0.55733173 0.35604758 0.4788567 28
Ni 1.78128 1.75923 7.18771 -0.17159914 -0.0152045 -0.67442831 28
Ni -0.0201831 3.58111 10.6341 0.03099299 -0.54634718 0.04844173 28
Ni 0.0653433 5.24819 1.75829 -0.7733884 -0.1180835 -0.15112385 28
Ni 1.80976 3.4706 1.83244 -0.06064409 0.82599172 -0.44155185 28
Fe 1.78507 5.26158 -0.122 0.17837369 -0.32164733 0.18374247 26
Ni 0.0585438 3.58391 3.50321 -0.75969941 -0.26188888 0.42930318 28
Ni 10.7144 5.34547 5.45652 0.47623884 0.14027702 -0.97510772 28
Ni 1.73656 3.27145 5.15558 -0.04151241 0.94294984 0.39987738 28
Ni 1.76768 5.46872 3.57708 0.05873984 -1.21458515 0.01475085 28
Ni 10.6732 3.4901 7.00111 0.14630035 -0.15537759 0.78035448 28
Ni 10.6571 5.25107 8.81666 0.24502703 -0.24793384 0.11769083 28
Ni 1.85417 3.60745 8.86331 -0.52818874 -0.85768249 0.18286289 28
Ni 1.7739 5.2944 7.1577 -0.37650576 0.41632793 -0.67837117 28
Ni 10.6792 6.92499 10.5302 0.19056078 0.71774925 0.63050242 28
Fe -0.00809386 8.80046 1.63065 -0.08439697 -0.00319662 0.28322042 26
Ni 1.61837 6.921 1.59159 0.93032217 1.42391269 1.04500193 28
Ni 1.81325 8.85562 10.5928 -0.73655668 0.47555036 0.61536925 28
Ni 10.7893 7.13845 3.5849 -0.97641791 0.00275011 -0.61190353 28
Fe -0.062025 8.8775 5.24233 0.01664443 0.1698345 1.08775824 26
Ni 1.75213 7.27019 5.30395 -0.04805329 -0.7255779 0.55274209 28
Fe 1.75929 8.94473 3.44124 0.22434427 -0.25883322 0.39154775 26
Ni 0.0620972 7.17356 7.16733 -0.37154301 0.10042853 -0.44122785 28
Ni 10.675 8.8482 9.00094 0.09699515 0.64730454 -0.62170082 28
Ni 1.75129 7.14219 8.84037 0.27470605 -0.63123109 0.26993083 28
Ni 1.73939 8.91668 7.20547 0.16219505 0.06696739 -0.78424319 28
Ni 3.60109 10.7139 10.6491 -0.15732229 -0.15254941 0.14205753 28
Ni 3.62803 1.7998 1.73595 -0.05095922 -0.75100309 0.71047163 28
Ni 5.38978 -0.107508 1.89321 -0.40729359 0.85663496 -0.62926471 28
Ni 5.36829 1.71503 0.102125 0.28453069 -0.25651975 -0.8433541 28
Ni 3.57146 10.6363 3.61588 -0.40389598 0.59422838 -0.24895594 28
Ni 3.638 1.82012 5.3322 -0.85486239 -0.43167826 -0.93364042 28
Ni 5.23749 10.7452 5.35314 0.4878997 -0.52391748 -0.05851498 28
Ni 5.4978 1.86691 3.53645 -1.01319964 -0.833784 0.31756797 28
Ni 3.515 -0.0626268 7.13866 0.26220652 0.28530424 -0.30898616 28
Ni 3.53851 1.82616 8.83992 0.59266692 -0.01638925 0.28537509 28
Fe 5.32196 10.6759 8.84525 -0.17938424 -0.0730772 0.5122211 26
Fe 5.29623 1.8124 6.93538 0.26371258 0.36278802 1.30258637 26
Ni 3.74604 3.6021 10.7959 -1.24037279 -0.51707595 -1.19874566 28
Ni 3.54738 5.34961 1.71449 -0.32154424 0.12167281 0.61376485 28
Ni 5.34232 3.53388 1.81278 0.85811826 0.07185889 -0.40635847 28
Ni 5.29498 5.38361 10.8147 0.22076793 0.4332968 -1.04346609 28
Ni 3.64917 3.60605 3.4074 -0.93428049 -0.48637461 1.29232566 28
Ni 3.50797 5.27454 5.3301 0.08872925 0.53061434 -0.53528252 28
Ni 5.38856 3.67545 5.39276 -0.25435326 -0.87960088 -0.62602576 28
Fe 5.32586 5.2725 3.52445 0.23087982 0.11180741 0.31527871 26
Ni 3.42512 3.5743 6.88444 0.54114315 -0.37521273 1.59408082 28
Ni 3.51712 5.33096 8.77753 0.4824119 0.05363816 0.77770404 28
Ni 5.33191 3.6738 8.88 -0.3314073 -0.81564077 0.31395097 28
Ni 5.34243 5.33442 7.13247 0.23074403 0.3016967 0.02287611 28
Ni 3.43414 7.13701 10.6969 0.83177159 -0.61046243 -0.27573835 28
Ni 3.47357 8.94005 1.73166 0.2519283 -0.34301894 0.34659057 28
Fe 5.25155 7.14581 1.9079 -0.28285975 0.05075491 -0.55686765 26
Ni 5.26703 8.81478 0.0410363 0.07003169 0.34045256 -0.38253896 28
Fe 3.47697 7.08579 3.5921 0.2979285 0.26605082 -0.39205919 26
Ni 3.58206 8.78414 5.35391 -0.04736365 0.90576727 -0.00925787 28
Fe 5.36881 7.07316 5.40857 -0.21002589 -0.11089765 -0.45464142 26
Ni 5.30773 9.02311 3.63007 -0.13705902 -1.5284097 0.08506403 28
Ni 3.53786 7.061 7.05573 -0.08413624 0.26079711 0.36709013 28
Ni 3.5576 8.86127 8.9529 0.2833898 0.04192126 -0.42400524 28
Fe 5.30711 7.0724 8.8771 -0.02591462 -0.06254284 0.09961006 26
Ni 5.3161 8.812 7.22082 0.07203896 0.38124575 -0.63865467 28
Fe 7.07965 10.4382 10.855 0.08900283 1.06896008 -0.97325592 26
Ni 7.15433 1.74105 1.7914 -0.02879228 -0.13581259 -0.18830482 28
Fe 8.79071 10.5646 1.90048 0.53353537 0.58930328 -0.51707632 26
Ni 8.81492 1.65746 10.6708 -0.12557371 0.14243826 0.21969327 28
Ni 7.14074 -0.139839 3.63654 -0.53849509 1.33984627 -0.31490148 28
Ni 7.18934 1.80124 5.32434 -0.47626782 0.36248658 0.09620736 28
Ni 8.80183 -0.180326 5.30421 0.75231168 1.4640134 -0.03386371 28
Ni 8.85594 1.80316 3.58413 0.38393494 -0.33133323 -0.46779432 28
Ni 7.0229 10.7483 7.05355 -0.09833328 -0.35995576 -0.19981677 28
Ni 7.15005 1.58293 8.85359 -0.31822955 0.98155257 0.68019647 28
Fe 8.91517 10.6067 8.79435 -0.07636446 0.58478786 0.83797599 26
Fe 8.86515 1.74342 6.9777 0.00025021 0.55634151 0.73346541 26
Ni 7.0983 3.4727 10.5903 -0.17275017 0.13092137 0.7657957 28
Ni 7.03218 5.31162 1.69914 0.73646821 0.02148515 0.25680708 28
Ni 8.93116 3.49319 1.8279 -0.1022211 0.35129157 -0.62697057 28
Ni 8.87671 5.37155 10.6599 0.45896773 -0.60369122 0.91607779 28
Ni 7.14621 3.54811 3.50687 0.36941354 0.69197986 0.4211489 28
Ni 7.10414 5.25599 5.35139 0.16425363 0.94089404 -0.08862764 28
Ni 8.90388 3.7668 5.42973 0.05608082 -1.15234423 -0.69501206 28
Ni 8.91138 5.47648 3.43606 0.08312714 -0.88302029 0.56361955 28
Ni 7.07289 3.53286 7.27825 0.38250995 0.18926403 -0.93083043 28
Ni 7.22273 5.37645 9.13309 -1.42474044 0.19887204 -1.51776704 28
Ni 8.79516 3.58992 8.92342 1.05870534 -0.68369171 -0.3506367 28
Ni 9.00783 5.51563 7.12371 -0.9274691 -1.22981485 0.15008742 28
Fe 7.0533 7.24527 10.7228 0.61740928 -0.65449564 -0.23572115 26
Ni 7.04849 8.77401 1.86029 0.24875073 0.32516457 -0.10887988 28
Ni 8.93748 7.13523 1.67315 0.00484895 -0.34433535 0.45658112 28
Ni 8.93263 8.82218 -0.07889 -0.14878301 0.57470905 0.4765511 28
Ni 7.10482 7.05065 3.48467 -0.25635573 -0.23105692 0.85207789 28
Fe 7.11738 8.9071 5.36848 -0.79844637 -0.51997899 0.13838179 26
Ni 8.98441 7.1145 5.39519 -0.28767672 -0.04321792 -0.4542806 28
Ni 8.73598 8.78861 3.64567 1.25310447 -0.46193091 -0.97468036 28
Ni 7.1735 7.13964 7.02684 -0.2446019 -0.34579904 0.78779979 28
Ni 7.22203 9.00726 8.84042 -1.41636871 -0.99120858 0.4839639 28
Ni 8.96687 7.05261 8.90998 -0.63937478 0.76276797 -0.2032901 28
Ni 8.76741 9.08433 7.11214 1.49449675 -1.84739368 -0.19516194 28
108
Lattice="10.728780567613278 0.0 0.0 0.0 10.728780567613278 0.0 0.0 0.0 10.728780567613278" Properties=species:S:1:pos:R:3:force:R:3:Z:I:1 pbc="T T T" config_type=binary_alloy_simple_relaxed energy=-712.36973562 virial="-7.7547023185913355 1.604387735061008 0.014092611620413475 1.604387735061008 -11.280778753400794 -0.41963544973519984 0.014092611620413475 -0.41963544973519984 -12.899035776716275"
Ni 0.101634 10.855 0.144537 -1.05107537 -1.06397346 -1.30406092 28
Ni -0.100822 1.79045 1.7399 0.29419478 0.85984517 0.23231794 28
Ni 1.75414 0.0837165 1.8082 0.48538444 -0.33772133 -0.0368959 28