2
Lattice="20.0 0.0 0.0 0.0 20.0 0.0 0.0 0.0 20.0" Properties=species:S:1:pos:R:3:force:R:3:Z:I:1 pbc="T T T" config_type=dimer energy=-10.16398093 virial="7.87195428785026 0.0 0.0 0.0 -0.011960129583236521 0.0 0.0 0.0 -0.011960129583236521"
Mn 0.0 0.0 0.0 -3.94258168 -0.0 -0.0 25
Mn 2.0 0.0 0.0 3.94258168 0.0 0.0 25
2
Lattice="20.0 0.0 0.0 0.0 20.0 0.0 0.0 0.0 20.0" Properties=species:S:1:pos:R:3:force:R:3:Z:I:1 pbc="T T T" config_type=dimer energy=3.81341008 virial="110.87441642438927 0.0 0.0 0.0 -0.05819508210864039 0.0 0.0 0.0 -0.05819508210864039"
Cr 0.0 0.0 0.0 -88.77952337 -0.0 0.0 24
Fe 1.25 0.0 0.0 88.77952337 0.0 -0.0 26
2
Lattice="20.0 0.0 0.0 0.0 20.0 0.0 0.0 0.0 20.0" Properties=species:S:1:pos:R:3:force:R:3:Z:I:1 pbc="T T T" config_type=dimer energy=-9.25155923 virial="8.778701459878398 0.0 -0.0 0.0 -0.0163885052740872 -0.0 -0.0 -0.0 -0.0163885052740872"
Mn 0.0 0.0 0.0 -5.02861469 0.0 0.0 25
Mn 1.75 0.0 0.0 5.02861469 -0.0 -0.0 25
2
Lattice="20.0 0.0 0.0 0.0 20.0 0.0 0.0 0.0 20.0" Properties=species:S:1:pos:R:3:force:R:3:Z:I:1 pbc="T T T" config_type=dimer energy=-9.15905015 virial="1.4855199664638623 0.0 0.0 0.0 -0.1467109661621646 0.0 0.0 0.0 -0.1467109661621646"
Cr 0.0 0.0 0.0 -0.80573129 -0.0 0.0 24
Fe 2.0 0.0 0.0 0.80573129 0.0 -0.0 26
2
Lattice="20.0 0.0 0.0 0.0 20.0 0.0 0.0 0.0 20.0" Properties=species:S:1:pos:R:3:force:R:3:Z:I:1 pbc="T T T" config_type=dimer energy=-10.114463 virial="2.7587513777307517 0.0 0.0 0.0 -0.14876771818139867 0.0 0.0 0.0 -0.14876771818139867"
Mn 0.0 0.0 0.0 -1.28757682 -0.0 0.0 25
Fe 2.25 0.0 0.0 1.28757682 0.0 -0.0 26
2
Lattice="20.0 0.0 0.0 0.0 20.0 0.0 0.0 0.0 20.0" Properties=species:S:1:pos:R:3:force:R:3:Z:I:1 pbc="T T T" config_type=dimer energy=-2.58615552 virial="-5.0188773295074665 0.0 0.0 0.0 -0.28391606399353597 0.0 0.0 0.0 -0.28391606399353597"
Ni 0.0 0.0 0.0 1.49710316 0.0 -0.0 28
Ni 3.12727273 0.0 0.0 -1.49710316 0.0 0.0 28
2
Lattice="20.0 0.0 0.0 0.0 20.0 0.0 0.0 0.0 20.0" Properties=species:S:1:pos:R:3:force:R:3:Z:I:1 pbc="T T T" config_type=dimer energy=-11.04248592 virial="3.448685949019186 0.0 -0.0 0.0 -0.025654899382738516 0.0 -0.0 0.0 -0.025654899382738516"
Mn 0.0 0.0 0.0 -1.46336657 -0.0 0.0 25
Mn 2.375 0.0 0.0 1.46336657 0.0 -0.0 25
2
Lattice="20.0 0.0 0.0 0.0 20.0 0.0 0.0 0.0 20.0" Properties=species:S:1:pos:R:3:force:R:3:Z:I:1 pbc="T T T" config_type=dimer energy=34.86928495 virial="246.74982724601247 0.0 0.0 0.0 -0.23578134588643226 0.0 0.0 0.0 -0.23578134588643226"
Fe 0.0 0.0 0.0 -219.60463217 -0.0 0.0 26
Ni 1.125 0.0 0.0 219.60463217 0.0 -0.0 28
2
Lattice="20.0 0.0 0.0 0.0 20.0 0.0 0.0 0.0 20.0" Properties=species:S:1:pos:R:3:force:R:3:Z:I:1 pbc="T T T" config_type=dimer energy=-7.45130379 virial="-3.466448135553771 0.0 0.0 0.0 -0.05351235243789173 -0.0 0.0 -0.0 -0.05351235243789173"
Cr 0.0 0.0 0.0 1.20353317 -0.0 0.0 24
Ni 2.83636364 0.0 0.0 -1.20353317 0.0 -0.0 28
2
Lattice="20.0 0.0 0.0 0.0 20.0 0.0 0.0 0.0 20.0" Properties=species:S:1:pos:R:3:force:R:3:Z:I:1 pbc="T T T" config_type=dimer energy=-9.68990471 virial="-1.2831694416895592 0.0 0.0 0.0 -0.14689531537570666 -0.0 0.0 -0.0 -0.14689531537570666"
Cr 0.0 0.0 0.0 0.43655523 0.0 -0.0 24
Fe 2.625 0.0 0.0 -0.43655523 -0.0 0.0 26
2
Lattice="20.0 0.0 0.0 0.0 20.0 0.0 0.0 0.0 20.0" Properties=species:S:1:pos:R:3:force:R:3:Z:I:1 pbc="T T T" config_type=dimer energy=-4.30002445 virial="-0.8044158822867278 0.0 0.0 0.0 -0.09109282840934586 0.0 0.0 0.0 -0.09109282840934586"
Ni 0.0 0.0 0.0 0.33211629 -0.0 0.0 28
Ni 2.10909091 0.0 0.0 -0.33211629 0.0 -0.0 28
2
Lattice="20.0 0.0 0.0 0.0 20.0 0.0 0.0 0.0 20.0" Properties=species:S:1:pos:R:3:force:R:3:Z:I:1 pbc="T T T" config_type=dimer energy=-3.45059489 virial="-5.623244255993079 0.0 0.0 0.0 -0.08938879655383374 0.0 0.0 0.0 -0.08938879655383374"
Ni 0.0 0.0 0.0 2.10784471 -0.0 0.0 28
Ni 2.61818182 0.0 0.0 -2.10784471 0.0 -0.0 28
2
Lattice="30.0 0.0 0.0 0.0 20.0 0.0 0.0 0.0 20.0" Properties=species:S:1:pos:R:3:force:R:3:Z:I:1 pbc="T T T" config_type=dimer energy=-7.31103935 virial="-0.4302387833220339 0.0 0.0 0.0 -0.22148764087121037 0.0 0.0 0.0 -0.22148764087121037"
Fe 0.0 0.0 0.0 0.56785424 0.0 0.0 26
Fe 3.9 0.0 0.0 -0.56785424 -0.0 -0.0 26
2
Lattice="20.0 0.0 0.0 0.0 20.0 0.0 0.0 0.0 20.0" Properties=species:S:1:pos:R:3:force:R:3:Z:I:1 pbc="T T T" config_type=dimer energy=-8.00994444 virial="0.5893738229237804 -0.0 0.0 -0.0 -0.0353090160382897 0.0 0.0 0.0 -0.0353090160382897"
Cr 0.0 0.0 0.0 -0.28611484 -0.0 -0.0 24
Ni 2.18181818 0.0 0.0 0.28611484 0.0 0.0 28
2
Lattice="20.0 0.0 0.0 0.0 20.0 0.0 0.0 0.0 20.0" Properties=species:S:1:pos:R:3:force:R:3:Z:I:1 pbc="T T T" config_type=dimer energy=-10.95426215 virial="-0.36291239832826305 -0.0 0.0 -0.0 -0.022618430159032817 0.0 0.0 0.0 -0.022618430159032817"
Cr 0.0 0.0 0.0 0.08756524 0.0 0.0 24
Cr 3.89655172 0.0 0.0 -0.08756524 -0.0 -0.0 24
2
Lattice="20.0 0.0 0.0 0.0 20.0 0.0 0.0 0.0 20.0" Properties=species:S:1:pos:R:3:force:R:3:Z:I:1 pbc="T T T" config_type=dimer energy=-6.74047907 virial="-4.138948973483861 0.0 0.0 0.0 -0.1705587738907044 0.0 0.0 0.0 -0.1705587738907044"
Fe 0.0 0.0 0.0 1.75530126 -0.0 0.0 26
Ni 2.25454545 0.0 0.0 -1.75530126 0.0 -0.0 28
2
Lattice="30.0 0.0 0.0 0.0 20.0 0.0 0.0 0.0 20.0" Properties=species:S:1:pos:R:3:force:R:3:Z:I:1 pbc="T T T" config_type=dimer energy=-8.04839566 virial="-4.6969166209918 0.0 0.0 0.0 -0.2609053175368865 0.0 0.0 0.0 -0.2609053175368865"
Fe 0.0 0.0 0.0 1.52946229 0.0 -0.0 26
Fe 2.9 0.0 0.0 -1.52946229 0.0 0.0 26
2
Lattice="20.0 0.0 0.0 0.0 20.0 0.0 0.0 0.0 20.0" Properties=species:S:1:pos:R:3:force:R:3:Z:I:1 pbc="T T T" config_type=dimer energy=-10.83071182 virial="-1.5183878034528366 0.0 -0.0 0.0 1.91794974418341 0.0 -0.0 0.0 1.91794974418341"
Cr 0.0 0.0 0.0 0.91902907 0.0 0.0 24
Cr 3.48275862 0.0 0.0 -0.91902907 -0.0 -0.0 24
2
Lattice="20.0 0.0 0.0 0.0 20.0 0.0 0.0 0.0 20.0" Properties=species:S:1:pos:R:3:force:R:3:Z:I:1 pbc="T T T" config_type=dimer energy=-4.19943852 virial="3.786952824820548 0.0 0.0 0.0 -0.08992242061806023 0.0 0.0 0.0 -0.08992242061806023"
Ni 0.0 0.0 0.0 -1.97613021 0.0 -0.0 28
Ni 1.96363636 0.0 0.0 1.97613021 -0.0 0.0 28
2
Lattice="20.0 0.0 0.0 0.0 20.0 0.0 0.0 0.0 20.0" Properties=species:S:1:pos:R:3:force:R:3:Z:I:1 pbc="T T T" config_type=dimer energy=-8.14695112 virial="-4.689217245130331 0.0 0.0 0.0 -0.26210523518331946 0.0 0.0 0.0 -0.26210523518331946"
Fe 0.0 0.0 0.0 1.56403311 0.0 -0.0 26
Fe 2.83636364 0.0 0.0 -1.56403311 0.0 0.0 26
2
Lattice="20.0 0.0 0.0 0.0 20.0 0.0 0.0 0.0 20.0" Properties=species:S:1:pos:R:3:force:R:3:Z:I:1 pbc="T T T" config_type=dimer energy=-7.70335163 virial="-2.9594152470109494 0.0 -0.0 0.0 -0.26185217943731964 0.0 -0.0 0.0 -0.26185217943731964"
Fe 0.0 0.0 0.0 0.8065292 -0.0 -0.0 26
Fe 3.34545455 0.0 0.0 -0.8065292 0.0 0.0 26
2
Lattice="20.0 0.0 0.0 0.0 20.0 0.0 0.0 0.0 20.0" Properties=species:S:1:pos:R:3:force:R:3:Z:I:1 pbc="T T T" config_type=dimer energy=-10.12861774 virial="-0.8433953051476208 0.0 -0.0 0.0 -0.025094162202869166 -0.0 -0.0 -0.0 -0.025094162202869166"
Cr 0.0 0.0 0.0 0.4521771 -0.0 0.0 24
Mn 1.82758621 0.0 0.0 -0.4521771 0.0 -0.0 25
2
Lattice="20.0 0.0 0.0 0.0 20.0 0.0 0.0 0.0 20.0" Properties=species:S:1:pos:R:3:force:R:3:Z:I:1 pbc="T T T" config_type=dimer energy=6.17248527 virial="118.0455613848388 0.0 0.0 0.0 -0.18805377390262817 -0.0 0.0 -0.0 -0.18805377390262817"
Mn 0.0 0.0 0.0 -94.6164143 0.0 -0.0 25
Fe 1.25 0.0 0.0 94.6164143 -0.0 0.0 26
2
Lattice="20.0 0.0 0.0 0.0 20.0 0.0 0.0 0.0 20.0" Properties=species:S:1:pos:R:3:force:R:3:Z:I:1 pbc="T T T" config_type=dimer energy=-8.33514091 virial="-1.6154460166243365 0.0 0.0 0.0 -0.057592401987445106 0.0 0.0 0.0 -0.057592401987445106"
Mn 0.0 0.0 0.0 0.72872998 0.0 -0.0 25
Ni 2.125 0.0 0.0 -0.72872998 -0.0 0.0 28
32
Lattice="7.174219841678626 0.0 0.0 0.0 7.174219841678626 0.0 0.0 0.0 7.174219841678626" Properties=species:S:1:pos:R:3:force:R:3:Z:I:1 pbc="T T T" config_type=trajectory_fcc energy=-160.36223175 virial="127.07159011881919 -200.86896005660472 -33.549642555343816 -200.86896005660472 324.1976089221418 46.8814865003327 -33.549642555343816 46.8814865003327 10.46918798845203"
Fe 7.13032737 7.14464234 -0.01022107 0.24473591 -0.09444691 0.35931381 26
Ni 0.02865633 1.78524792 1.78080879 -0.49432799 0.00732167 -0.26179769 28
Ni 2.28942213 8.1789162 3.38267465 208.75604203 -366.03064335 -69.15338631 28
Fe 1.78616236 1.76903715 0.00996512 0.05712494 -0.2152204 0.25357678 26
Cr 7.12415671 7.14230259 3.58364135 -0.83160678 -0.37484485 0.20643694 24
Cr 7.13333188 1.8112866 5.41544881 -0.4408589 0.11262293 0.03309357 24
Cr 1.74896251 0.02150588 5.34662113 -0.20581367 -1.34608756 2.49716683 24
Cr 1.79388958 1.840834 3.52879357 -226.38542525 379.3493258 65.37828907 24
Fe 0.00332912 3.57230543 0.01427767 0.14839088 0.18788632 -0.25079411 26
Ni 7.14992458 5.34207571 1.80718638 -0.00038408 0.13174611 -0.11882612 28
Fe 1.80646865 3.65400743 1.75436059 -0.09834355 0.13409449 -0.3546465 26
Cr 1.77411686 5.36012173 7.15300488 -0.06660842 0.01756682 0.38724944 24
Fe 7.12290318 3.56503723 3.5501768 0.35205442 0.17242379 0.42906769 26
Fe -0.00639387 5.36242225 5.31381932 0.22920658 -0.22192804 0.45014325 26
Fe 1.75552591 3.52988323 5.36362216 0.2271943 0.04458099 0.14417326 26
Ni 1.79653439 5.34734708 3.57450349 -0.15819007 0.12050638 -0.03713646 28
Fe 3.5916991 7.13008441 7.14495109 -0.19323179 0.03706506 0.40374917 26
Fe 3.53207971 1.76983944 1.7575164 2.25923965 0.96346123 -2.63770047 26
Cr 5.35139367 0.00974116 1.77530864 0.17692383 -0.01977434 -0.23679665 24
Ni 5.36386761 1.79383543 0.0200213 -0.10063357 -0.10570874 -0.06938848 28
Cr 3.60523815 7.14058469 3.59960812 16.43517691 -13.64053101 2.37768036 24
Cr 3.61827001 1.81903131 5.41242469 0.54594724 0.57348879 0.7173489 24
Cr 5.41675544 7.11681276 5.41673336 -0.34344091 0.06926223 -0.52989491 24
Ni 5.3523011 1.8145644 3.53690173 -0.10870701 -0.19251106 0.20251463 28
Ni 3.55055934 3.60337169 0.00043968 0.1969284 -0.18139228 -0.02768861 28
Ni 3.60277014 5.38257538 1.78463759 -0.10779677 0.05916149 -0.03067245 28
Fe 5.35874462 3.56924711 1.75356226 -0.24523108 -0.0344676 0.15042763 26
Fe 5.37354171 5.35368229 -0.00212162 -0.03120548 0.26843609 -0.01111884 26
Ni 3.57153651 3.58187295 3.55618476 0.26803097 0.11280453 0.00392227 28
Ni 3.56190126 5.34332641 5.34729506 0.02371727 0.06293604 0.21418512 28
Cr 5.47381125 3.64145709 5.42351934 -0.24206477 -0.18197428 -0.45449118 24
Ni 5.359755 5.33328534 3.57226173 0.13315678 0.21483967 -0.03399995 28
32
Lattice="7.136889649932412 0.0 0.0 0.0 7.136889649932412 0.0 0.0 0.0 7.136889649932412" Properties=species:S:1:pos:R:3:force:R:3:Z:I:1 pbc="T T T" config_type=trajectory_fcc energy=-238.94356929 virial="36.32100535805505 -1.1341389683996748 -0.6807184138637988 -1.1341389683996748 34.37718976443507 2.3828832671785833 -0.6807184138637988 2.3828832671785833 43.95801585647665"
Fe 7.07393513 0.03390994 7.09769667 0.05400853 -0.21736732 0.0286233 26
Fe 0.00714132 1.76041666 1.76553113 0.31397575 0.13392839 -0.27645128 26
Mn 3.80902896 0.03553083 1.73344858 -17.24459302 -3.71873067 2.02617907 25
Cr 1.80297323 1.75422408 0.02123257 -0.58662386 -0.08554131 -0.037652 24
Ni 0.06392445 0.0572197 3.58300054 0.00604779 -0.44094559 0.2760389 28
Fe 7.0682611 1.79246174 5.41207012 0.23204263 0.57428025 -0.07477432 26
Fe 1.78540632 0.13299772 5.39974773 -0.31604786 -0.58726062 -0.3336342 26
Mn 1.81057385 1.84675996 3.57699952 -0.16582539 -0.02545252 -0.16868398 25
Cr 7.12304198 3.57014617 0.12351738 0.03485539 0.00938754 -0.6085688 24
Fe 0.08989277 5.41615112 1.76060469 0.15375356 -0.04926445 0.31091865 26
Fe 1.78305687 3.56919107 1.70013795 -0.09525489 -0.12036588 0.55329296 26
Fe 1.76076505 5.39992225 7.07885219 0.0220117 0.16490878 0.08975582 26
Mn 7.08144355 3.53633878 3.51888329 0.63141397 0.71844306 0.72901732 25
Cr 0.09072724 5.45021571 5.43684519 -0.48345403 -0.64382405 -0.6240959 24
Mn 1.89752907 3.49017505 5.42587525 -0.94414667 0.2735342 -0.21001112 25
Cr 1.87403208 5.28426393 3.61443037 -0.67784643 -0.20352944 0.02101612 24
Ni 3.59688456 7.10077534 7.12475472 -2.12162473 -0.03028641 -14.37861304 28
Cr 3.58388718 1.77254923 1.78128175 -1.59382054 13.34964298 0.62751263 24
Cr 5.36846493 7.13097725 1.80917675 23.58717387 -0.1097368 1.06473254 24
Ni 5.35780286 1.8411075 0.02799581 0.11501637 -0.10943976 -0.29809952 28
Ni 3.52274306 0.0194523 3.53865919 -1.82190522 0.04736211 10.99794178 28
Ni 3.63797795 1.73619756 5.35696688 -0.10173005 0.21338346 0.14189359 28
Mn 5.33855761 7.08223637 5.34009203 0.81148023 -0.42423251 0.10654412 25
Mn 5.36875671 1.75992699 3.56749042 0.20485786 0.10624875 0.51291322 25
Ni 3.56110327 3.56858235 0.03652443 0.1814294 0.04908195 -0.36155886 28
Ni 3.50626857 5.31559122 1.74932313 -1.44015491 -8.47031628 0.27539678 28
Ni 5.35504927 3.57905885 1.8276904 -0.0289712 -0.35958765 -0.39624475 28
Cr 5.36233875 5.3489345 0.12294956 0.50014171 -0.24264233 -1.03800092 24
Fe 3.6783025 3.52979809 3.59399294 -0.62627565 0.29953738 -0.12432906 26
Mn 3.52431299 5.3752512 5.3107235 0.27747085 -0.05818591 0.30934138 25
Cr 5.19212792 3.6375147 5.37716731 0.77372117 -0.00566889 -0.24664819 24
Mn 5.33648888 5.34803219 3.46224837 0.34887368 -0.03736047 1.10624776 25
32
Lattice="7.170032140638978 0.0 0.0 0.0 7.170032140638978 0.0 0.0 0.0 7.170032140638978" Properties=species:S:1:pos:R:3:force:R:3:Z:I:1 pbc="T T T" config_type=trajectory_fcc energy=-168.50362455 virial="230.07545074496926 -68.18826117447725 186.09816291227645 -68.18826117447725 33.687177676770546 -54.91246364218118 186.09816291227645 -54.91246364218118 156.78107053573953"
Ni 0.00879174 0.00442751 -0.00212038 0.09243371 -0.0023041 0.06978881 28
Fe -0.0017969 1.75759503 1.76706733 0.02817452 0.15321639 0.15000226 26
Cr 2.84040173 2.03436223 4.74334015 -274.39051368 89.0315467 -216.54410572 24
Ni 1.76755776 1.81242939 7.1060589 -0.36508751 -0.35063127 1.05250498 28
Cr 7.14151308 0.03223699 3.60186762 0.24687067 0.17442005 -0.02409661 24
Fe 7.1266003 1.78613215 5.40681524 -0.03623427 -0.14711506 -0.22171514 26
Fe 1.78556337 7.15994046 5.37634625 -1.37629714 -2.11259038 0.34393755 26
Fe 1.76921418 1.77896596 3.61483449 -13.37716891 -2.93491693 -14.56033116 26
Fe 0.01313204 3.57007058 0.00870241 -0.14803956 0.1725457 0.32529125 26
Ni 0.01974374 5.36795217 1.78147626 -0.1648285 0.06535386 0.21974789 28
Ni 1.81948813 3.57736868 1.80358264 -0.20648544 -0.05161991 -0.13578847 28
Ni 1.80451518 5.36423592 -0.0047032 -0.19835579 0.18792428 0.00744915 28
Cr 7.14636143 3.54910173 3.55122207 -0.30929816 0.09564126 -0.13007338 24
Cr 0.03386081 5.40379243 5.38840164 0.00623891 0.07496301 -0.32658358 24
Fe 1.6898233 3.60243823 5.31242627 -3.01017232 4.2578308 1.49570626 26
Cr 1.85734678 5.37518809 3.515221 0.15192215 0.29503585 -0.05304475 24
Ni 3.55487511 0.02831198 7.10773194 -0.22782121 -0.29165718 0.59521118 28
Cr 3.48767663 1.70248263 1.83054545 0.11028671 -0.36068278 -0.19526153 24
Fe 5.36989335 0.00184598 1.77284458 -0.06313149 0.10625653 0.01104382 26
Ni 5.35690664 1.78433416 -0.00116597 0.47782666 -0.06282453 0.58461591 28
Fe 3.58977451 7.14472124 3.65493598 0.24813504 -1.82983042 -1.52580147 26
Fe 3.59706073 1.79286787 5.35272533 289.13602946 -91.67840328 232.82883472 26
Ni 5.35634876 0.02143214 5.38361077 0.54046501 -0.47030467 -0.06291198 28
Ni 5.37406087 1.78689401 3.58173046 0.54989931 0.00097864 -0.44737628 28
Ni 3.51786552 3.54424594 7.09599124 0.1767033 0.40633432 0.71860104 28
Cr 3.68310215 5.34931972 1.70439383 0.03372361 0.00754581 -0.00416606 24
Cr 5.28481188 3.49247875 1.77412769 0.18307665 0.17676448 -0.04837403 24
Cr 5.34205155 5.39363678 7.1318497 0.11033137 0.16085103 -0.07849943 24
Fe 3.57109305 3.57331796 3.64431579 1.75327677 4.70725694 -3.79349265 26
Fe 3.59238501 5.35092049 5.40345519 -0.28488668 -0.02531722 -0.02736615 26
Ni 5.37625762 3.54918752 5.39419738 0.45248534 0.52071809 -0.2081114 28
Cr 5.36871747 5.38496032 3.61766091 -0.13955854 -0.27698602 -0.01563502 24
32
Lattice="7.132280895439495 0.0 0.0 0.0 7.132280895439495 0.0 0.0 0.0 7.132280895439495" Properties=species:S:1:pos:R:3:force:R:3:Z:I:1 pbc="T T T" config_type=trajectory_fcc energy=-253.31375024 virial="-3.0805887085946932 0.46211779331292335 2.6285576406836118 0.46211779331292335 -3.267471395352505 4.404444908624565 2.6285576406836118 4.404444908624565 -1.5900315018529914"
Ni 0.03874938 0.02200673 7.13039669 -0.15883902 -0.11087558 0.00329423 28
Cr 0.04674374 1.74413512 1.76789294 -0.68280851 0.24549286 0.20747352 24
Fe 1.96644741 0.31987453 2.30952725 -2.03197455 -4.64930778 -5.78245776 26
Ni 1.79796462 1.76240464 0.02220898 0.02041675 0.06517757 0.13836784 28
Cr 0.01845138 0.0572488 3.53384926 -0.63088818 -0.26049555 0.2673803 24
Cr 0.03889816 1.81938099 5.3882834 -0.68552293 0.40506047 -0.08334748 24
Ni 1.77792255 0.03800212 5.31870559 0.13869791 -0.40888138 0.29797836 28
Ni 1.79114332 1.82845577 3.58686836 -0.40252751 3.5462863 2.69354163 28
Ni 7.11658639 3.54963614 0.07598609 0.23302647 -0.00309707 -0.36675522 28
Mn 0.0552277 5.41291323 1.75053274 0.01085685 0.05436468 0.30113676 25
Ni 1.84117198 3.51020268 1.77875632 -0.31297465 0.43090196 -0.06332545 28
Cr 1.82984204 5.36474125 0.04503558 0.01417789 0.14493901 0.24334354 24
Fe 7.13810264 3.59320725 3.47773832 -0.14374193 -0.5625676 0.45713367 26
Cr 0.01379393 5.34303383 5.32719015 -0.24242455 -0.41727827 -0.15531672 24
Mn 1.73274135 3.60867903 5.34638268 -0.18596535 0.33820882 0.55508508 25
Fe 1.7756883 5.33956199 3.56625745 0.02546489 0.18583504 0.24722283 26
Cr 3.56017398 7.08668407 0.03306522 0.043623 0.47110788 0.22707202 24
Fe 3.57914067 1.76488622 1.7736894 0.90592221 0.52672665 -0.37852829 26
Fe 5.34824199 0.08968683 1.85152731 -0.00711233 -0.46944599 -0.30244261 26
Mn 5.27987228 1.7822447 0.06895076 0.47241812 -0.13398912 -0.26732728 25
Ni 3.61926742 0.02850883 3.58131915 1.70262091 -0.67910569 1.36589672 28
Mn 3.50784439 1.81997939 5.37313978 0.85130363 0.03933873 0.21421851 25
Cr 5.41960636 7.06735795 5.32060328 0.25397712 0.53120369 0.24742366 24
Mn 5.23677917 1.89085912 3.54228845 0.52700883 -0.17549112 0.42794878 25
Fe 3.62309331 3.57041346 0.02313913 -0.42750207 0.0106817 -0.35622027 26
Fe 3.58973486 5.29546998 1.7889064 -0.13724106 0.52731329 -0.09775853 26
Mn 5.30195333 3.53805416 1.77287459 0.19697381 0.18755181 0.1496382 25
Ni 5.38239472 5.34389219 0.08104999 -0.16066243 0.37129517 -0.34701004 28
Mn 3.52110188 3.62418842 3.56327083 0.27076597 -0.21054172 -0.00184672 25
Cr 3.57661907 5.31314438 5.30255548 0.15926464 -0.22187169 -0.00902229 24
Mn 5.38516684 3.60939704 5.4235617 0.35905184 -0.2096952 -0.35428776 25
Fe 5.37140367 5.27724864 3.49129591 0.02461422 0.43115814 0.52149074 26
32
Lattice="7.170032140638978 0.0 0.0 0.0 7.170032140638978 0.0 0.0 0.0 7.170032140638978" Properties=species:S:1:pos:R:3:force:R:3:Z:I:1 pbc="T T T" config_type=trajectory_fcc energy=-243.49925904 virial="-8.143265283666823 2.405632086552426 1.277600511756406 2.405632086552426 -6.315766807952541 0.006304452584511229 1.277600511756406 0.006304452584511229 -8.104010558437766"
Ni 0.00879174 0.00442751 -0.00212038 0.16108238 0.03930693 0.09537095 28
Fe -0.0017969 1.75759503 1.76706733 -0.13886062 0.16758789 0.21367376 26
Cr 2.1268472 0.31857805 2.02532632 -2.94581996 -2.86675532 -1.90369757 24
Ni 1.76755776 1.81242939 7.1060589 0.07350277 -0.20780216 0.19372013 28
Cr 7.14151308 0.03223699 3.60186762 0.05756445 0.22210833 -0.06302987 24
Fe 7.1266003 1.78613215 5.40681524 0.13661557 -0.18539441 -0.33775476 26
Fe 1.78556337 7.15994046 5.37634625 0.06185956 0.06719311 0.08188301 26
Fe 1.76921418 1.77896596 3.61483449 -0.40468353 0.9582331 0.76968323 26
Fe 0.01313204 3.57007058 0.00870241 -0.17687615 0.18077329 0.24324831 26
Ni 0.01974374 5.36795217 1.78147626 -0.20340298 0.09995737 0.19834153 28
Ni 1.81948813 3.57736868 1.80358264 -0.10102331 -0.11313873 -0.02150121 28
Ni 1.80451518 5.36423592 -0.0047032 -0.14200141 0.22909199 0.06884408 28
Cr 7.14636143 3.54910173 3.55122207 0.00054147 -0.19385158 0.02110176 24
Cr 0.03386081 5.40379243 5.38840164 -0.34562548 -0.07437005 -0.39084593 24
Fe 1.6898233 3.60243823 5.31242627 0.59403987 -0.15929247 0.4745272 26
Cr 1.85734678 5.37518809 3.515221 -0.01419966 -0.10072377 0.12944999 24
Ni 3.55487511 0.02831198 7.10773194 0.05196765 -0.02362228 0.2499815 28
Cr 3.48767663 1.70248263 1.83054545 2.10567339 2.22026458 -0.56981262 24
Fe 5.36989335 0.00184598 1.77284458 0.02129435 0.04193376 0.15733056 26
Ni 5.35690664 1.78433416 -0.00116597 0.03592252 -0.07241208 0.11201929 28
Fe 3.58977451 7.14472124 3.65493598 0.94577715 -0.32055051 0.54437335 26
Fe 3.59706073 1.79286787 5.35272533 -0.42538442 0.01135503 -0.20247923 26
Ni 5.35634876 0.02143214 5.38361077 0.19999855 -0.12494232 -0.06811611 28
Ni 5.37406087 1.78689401 3.58173046 0.0453294 -0.00134756 0.02022371 28
Ni 3.51786552 3.54424594 7.09599124 0.29800172 -0.02962216 0.27764374 28
Cr 3.68310215 5.34931972 1.70439383 0.07014721 -0.28158036 0.34553238 24
Cr 5.28481188 3.49247875 1.77412769 0.16802452 0.19454897 0.1118729 24
Cr 5.34205155 5.39363678 7.1318497 0.16066766 0.16792571 -0.11964507 24
Fe 3.57109305 3.57331796 3.64431579 0.11418682 -0.04545128 -0.27006706 26
Fe 3.59238501 5.35092049 5.40345519 -0.20551496 0.13546785 -0.12524288 26
Ni 5.37625762 3.54918752 5.39419738 0.0580803 0.15439749 -0.22119373 28
Cr 5.36871747 5.38496032 3.61766091 -0.25688485 -0.08928836 -0.01543535 24
32
Lattice="7.170032140638978 0.0 0.0 0.0 7.170032140638978 0.0 0.0 0.0 7.170032140638978" Properties=species:S:1:pos:R:3:force:R:3:Z:I:1 pbc="T T T" config_type=trajectory_fcc energy=-210.42508293 virial="89.11857401268345 100.67120474861497 13.395077872190948 100.67120474861497 99.64419732870545 13.299189297590438 13.395077872190948 13.299189297590438 6.427785127313393"
Ni 0.00879174 0.00442751 -0.00212038 0.0021038 0.02833574 0.049358 28
Fe -0.0017969 1.75759503 1.76706733 -0.10731454 0.35381741 0.09830004 26
Cr 2.72205555 0.91378639 1.73665118 -132.876354 -136.83054171 -15.08066814 24
Ni 1.76755776 1.81242939 7.1060589 -1.27915902 0.80205451 -2.13793487 28
Cr 7.14151308 0.03223699 3.60186762 0.29211759 -0.24397981 -0.18722224 24
Fe 7.1266003 1.78613215 5.40681524 0.12469013 -0.13843745 -0.33981673 26
Fe 1.78556337 7.15994046 5.37634625 0.04058499 0.08855868 -0.05119677 26
Fe 1.76921418 1.77896596 3.61483449 -1.02800945 0.96562764 2.11642068 26
Fe 0.01313204 3.57007058 0.00870241 -0.12073078 0.01611181 0.2855774 26
Ni 0.01974374 5.36795217 1.78147626 -0.17828252 0.05739613 0.23982847 28
Ni 1.81948813 3.57736868 1.80358264 -0.52658577 0.33617964 0.03009925 28
Ni 1.80451518 5.36423592 -0.0047032 0.01643338 0.16876636 0.07365805 28
Cr 7.14636143 3.54910173 3.55122207 0.23824475 -0.08087605 0.03313409 24
Cr 0.03386081 5.40379243 5.38840164 -0.08714916 -0.0272993 -0.31496744 24
Fe 1.6898233 3.60243823 5.31242627 0.32347227 0.1463398 -0.27562744 26
Cr 1.85734678 5.37518809 3.515221 -0.11060049 0.36301402 0.10868372 24
Ni 3.55487511 0.02831198 7.10773194 1.25286728 -1.43843597 -2.62129828 28
Cr 3.48767663 1.70248263 1.83054545 131.85803795 136.20501358 15.98007233 24
Fe 5.36989335 0.00184598 1.77284458 0.36921094 -0.44853237 0.2058923 26
Ni 5.35690664 1.78433416 -0.00116597 0.24419095 -0.01442452 -0.21466988 28
Fe 3.58977451 7.14472124 3.65493598 0.73162262 -1.14445679 1.65762987 26
Fe 3.59706073 1.79286787 5.35272533 -0.31952207 -0.08753927 -0.05018477 26
Ni 5.35634876 0.02143214 5.38361077 0.18574832 -0.09842818 -0.01396362 28
Ni 5.37406087 1.78689401 3.58173046 0.22357468 -0.02344016 0.23997108 28
Ni 3.51786552 3.54424594 7.09599124 0.32757366 0.25700524 0.01942151 28
Cr 3.68310215 5.34931972 1.70439383 0.0476237 -0.25060629 0.10599707 24
Cr 5.28481188 3.49247875 1.77412769 0.37035867 0.3772347 0.13869366 24
Cr 5.34205155 5.39363678 7.1318497 0.07521553 -0.02497341 -0.1890511 24
Fe 3.57109305 3.57331796 3.64431579 -0.00249317 0.43829427 0.18913942 26
Fe 3.59238501 5.35092049 5.40345519 -0.22685629 0.04241609 -0.06343764 26
Ni 5.37625762 3.54918752 5.39419738 0.10589647 0.25827158 -0.12281498 28
Cr 5.36871747 5.38496032 3.61766091 0.03348959 -0.05246592 0.09097696 24
32
Lattice="7.136889649932412 0.0 0.0 0.0 7.136889649932412 0.0 0.0 0.0 7.136889649932412" Properties=species:S:1:pos:R:3:force:R:3:Z:I:1 pbc="T T T" config_type=trajectory_fcc energy=-159.3293112 virial="324.0327004993506 -178.90746827954786 167.40971507536426 -178.90746827954786 120.15402827296583 -93.04982121985815 167.40971507536426 -93.04982121985815 110.65202227851091"
Fe 7.07393513 0.03390994 7.09769667 0.2446094 0.14133143 0.23091314 26
Fe 0.00714132 1.76041666 1.76553113 0.23927048 -0.02919095 -0.17802013 26
Mn 2.87807393 2.17362077 4.94058349 -388.8712869 221.84220723 -213.34828069 25
Cr 1.80297323 1.75422408 0.02123257 -1.23570278 -0.51855023 1.48363392 24
Ni 0.06392445 0.0572197 3.58300054 -0.01354921 -0.41456159 0.09994391 28
Fe 7.0682611 1.79246174 5.41207012 0.13503368 0.37522648 -0.30100757 26
Fe 1.78540632 0.13299772 5.39974773 -1.28437641 -2.25174002 0.10125442 26
Mn 1.81057385 1.84675996 3.57699952 -6.92049011 -2.16903541 -9.01828544 25
Cr 7.12304198 3.57014617 0.12351738 0.53202225 -0.36334531 -0.45301251 24
Fe 0.08989277 5.41615112 1.76060469 -0.23378936 -0.06371957 0.27066116 26
Fe 1.78305687 3.56919107 1.70013795 -0.24971278 0.17564029 0.34933059 26
Fe 1.76076505 5.39992225 7.07885219 0.33381039 -0.03013662 0.25901618 26
Mn 7.08144355 3.53633878 3.51888329 1.08254678 0.30529784 0.23244895 25
Cr 0.09072724 5.45021571 5.43684519 -0.11509337 -0.17312848 -0.71465865 24
Mn 1.89752907 3.49017505 5.42587525 -8.62113137 10.53397258 3.36092401 25
Cr 1.87403208 5.28426393 3.61443037 -0.55659889 0.17559668 -0.07138269 24
Ni 3.59688456 7.10077534 7.12475472 -0.22540311 0.17273509 0.2604175 28
Cr 3.58388718 1.77254923 1.78128175 -0.28917158 0.19254359 0.2449913 24
Cr 5.36846493 7.13097725 1.80917675 -0.10578534 0.05218897 0.04431251 24
Ni 5.35780286 1.8411075 0.02799581 -0.15991659 -0.17315161 0.18512644 28
Ni 3.52274306 0.0194523 3.53865919 0.03191423 -0.77460968 -0.41662406 28
Ni 3.63797795 1.73619756 5.35696688 402.40539406 -231.61769769 220.4434489 28
Mn 5.33855761 7.08223637 5.34009203 0.73281367 -0.56704327 -0.21706468 25
Mn 5.36875671 1.75992699 3.56749042 0.47537855 -0.49716131 -0.37776601 25
Ni 3.56110327 3.56858235 0.03652443 0.22157362 0.35452717 0.340234 28
Ni 3.50626857 5.31559122 1.74932313 0.07648921 0.39990113 0.27558678 28
Ni 5.35504927 3.57905885 1.8276904 -0.07450164 -0.32263951 -0.49488257 28
Cr 5.36233875 5.3489345 0.12294956 -0.00673693 0.15165562 -0.05234663 24
Fe 3.6783025 3.52979809 3.59399294 0.60860492 3.30368645 -3.26838852 26
Mn 3.52431299 5.3752512 5.3107235 -0.41148306 0.28875192 0.42477969 25
Cr 5.19212792 3.6375147 5.37716731 2.15575658 0.67046644 -0.01426597 24
Mn 5.33648888 5.34803219 3.46224837 0.09951162 0.82998236 0.3189627 25
32
Lattice="7.174219841678626 0.0 0.0 0.0 7.174219841678626 0.0 0.0 0.0 7.174219841678626" Properties=species:S:1:pos:R:3:force:R:3:Z:I:1 pbc="T T T" config_type=trajectory_fcc energy=-223.58929581 virial="44.2151947771433 -12.34442922799953 -6.774914053824743 -12.34442922799953 45.898700587840835 -12.582571944491828 -6.774914053824743 -12.582571944491828 38.08501343849999"
Fe 7.13032737 7.14464234 -0.01022107 0.22620808 -0.02952981 0.23972338 26
Ni 0.02865633 1.78524792 1.78080879 -0.36075614 -0.17644159 -0.06454941 28
Ni 3.34261289 8.69758448 3.36682043 14.07059261 12.13059946 10.05823136 28
Fe 1.78616236 1.76903715 0.00996512 0.01125472 -0.38573782 0.22985802 26
Cr 7.12415671 7.14230259 3.58364135 0.41438571 0.33662757 0.11034502 24
Cr 7.13333188 1.8112866 5.41544881 -0.20079632 0.05153332 0.00127645 24
Cr 1.74896251 0.02150588 5.34662113 0.16389248 0.08404917 -0.00076321 24
Cr 1.79388958 1.840834 3.52879357 -28.53746077 6.06279888 3.09459928 24
Fe 0.00332912 3.57230543 0.01427767 -0.12711861 0.10877435 -0.23800827 26
Ni 7.14992458 5.34207571 1.80718638 -0.003604 0.12092924 -0.08819797 28
Fe 1.80646865 3.65400743 1.75436059 -0.1577626 -0.30770006 0.16109865 26
Cr 1.77411686 5.36012173 7.15300488 -0.05281579 0.17587436 0.25453001 24
Fe 7.12290318 3.56503723 3.5501768 0.23052808 0.29854165 0.28547572 26
Fe -0.00639387 5.36242225 5.31381932 0.05475906 -0.14024436 0.39550326 26
Fe 1.75552591 3.52988323 5.36362216 0.01730055 0.14964817 0.03339798 26
Ni 1.79653439 5.34734708 3.57450349 -0.07119664 0.17213723 -0.12220206 28
Fe 3.5916991 7.13008441 7.14495109 -0.22173298 0.00522811 0.19448536 26
Fe 3.53207971 1.76983944 1.7575164 3.50602264 4.18026345 -23.99338031 26
Cr 5.35139367 0.00974116 1.77530864 0.20982495 -0.06093909 -0.34147256 24
Ni 5.36386761 1.79383543 0.0200213 0.04960635 -0.09460308 -0.16913958 28
Cr 3.60523815 7.14058469 3.59960812 4.7340055 -27.9520545 4.63176551 24
Cr 3.61827001 1.81903131 5.41242469 0.6311009 0.81058812 4.47079583 24
Cr 5.41675544 7.11681276 5.41673336 -0.27444673 -0.12216498 -0.2535472 24
Ni 5.3523011 1.8145644 3.53690173 4.94929992 0.504996 0.77540712 28
Ni 3.55055934 3.60337169 0.00043968 0.2411658 -0.13889853 -0.0907038 28
Ni 3.60277014 5.38257538 1.78463759 -0.14494808 0.03092195 -0.01894633 28
Fe 5.35874462 3.56924711 1.75356226 -0.01091347 0.04495723 0.06722904 26
Fe 5.37354171 5.35368229 -0.00212162 0.02868771 0.12876035 -0.17154309 26
Ni 3.57153651 3.58187295 3.55618476 0.66051922 3.90748066 0.42086804 28
Ni 3.56190126 5.34332641 5.34729506 0.11702662 0.04267868 0.31020153 28
Cr 5.47381125 3.64145709 5.42351934 -0.27459232 -0.10659051 -0.18573473 24
Ni 5.359755 5.33328534 3.57226173 0.12196355 0.16751641 0.00339699 28
32
Lattice="7.170032140638978 0.0 0.0 0.0 7.170032140638978 0.0 0.0 0.0 7.170032140638978" Properties=species:S:1:pos:R:3:force:R:3:Z:I:1 pbc="T T T" config_type=trajectory_fcc energy=-205.53656039 virial="56.85790197447321 32.078536452576984 46.67187593050906 32.078536452576984 57.45850954500651 50.51516081185297 46.67187593050906 50.51516081185297 75.49276522262848"
Ni 0.00879174 0.00442751 -0.00212038 0.04432312 -0.07509369 -0.01578399 28
Fe -0.0017969 1.75759503 1.76706733 0.55542947 -0.22812948 0.16161655 26