54
Lattice="8.5603352 0.0 0.0 0.0 8.5603352 0.0 0.0 0.0 8.5603352" Properties=species:S:1:pos:R:3:force:R:3 config_type=phonon virial="-0.7982456255452542 -2.106428003140197 0.22008134617188682 -2.106428003140197 -3.4047713025666333 -2.7184358924174945 0.22008134617188682 -2.7184358924174945 -2.620021619101301" energy=-442.31181361 pbc="T T T"
Fe       0.02004000       0.01710000       0.04789000      -0.77826400      -0.86261500      -0.91525400
Fe       1.40149000       1.39610000       1.20418000       0.12490100       0.81749300       2.03796600
Fe       0.02143000       0.31751000       2.92995000      -0.01108700      -1.84754200       0.37503700
Fe       1.62749000       1.78124000       4.40910000      -0.05237600      -1.95001000      -1.36422100
Fe       0.16803000       0.02690000       5.71137000      -0.93462000      -1.35848100      -0.67353500
Fe       1.39295000       1.40276000       7.12408000       0.73577300       0.51347000      -0.30767000
Fe       8.44670000       2.79401000       0.07305000       0.36246000       0.71412100      -0.36819800
Fe       1.46164000       4.34694000       1.43668000      -1.61479000      -0.31327400      -0.85424500
Fe       8.43937000       2.75741000       2.94022000       0.69986500       1.10365800      -1.47427900
Fe       1.49510000       4.40551000       4.17568000      -0.67177200      -1.09139100       0.52086100
Fe       8.53486000       2.63251000       5.65937000      -0.17100400       2.21100200       0.60077300
Fe       1.50378000       4.21290000       7.05444000      -0.93595000       0.55745900       0.86107800
Fe       8.46447000       5.82299000       8.42740000       0.95388800      -1.78564300       2.01938100
Fe       1.10332000       7.22468000       1.52271000       2.18114700      -0.60554900      -0.66000600
Fe       8.45074000       5.78279000       2.88390000       0.68394600      -1.37563400       0.27083500
Fe       1.55817000       7.04937000       4.18812000      -1.43001600       0.82303500      -0.37833000
Fe       0.11187000       5.63603000       5.76654000      -0.53190900      -0.20987000      -0.96998800
Fe       1.56782000       7.00553000       7.18180000      -1.46827400       1.49889500      -0.55758400
Fe       2.87451000       0.10017000       8.41300000       0.28062700      -0.92386300       0.90061800
Fe       4.32682000       1.43727000       1.42724000      -0.94000900       0.38786400      -0.74898800
Fe       2.74517000       8.54123000       2.67998000       1.06621700       0.39363100       0.82766600
Fe       4.44921000       1.50868000       4.36388000      -2.76626700      -0.62021900      -0.34946400
Fe       2.70022000       8.51621000       5.55614000       2.03230200       0.68490400       0.72252700
Fe       4.35759000       1.48399000       7.18306000      -0.20273600      -0.78294700      -0.42652600
Fe       2.74694000       2.83770000       8.51266000       1.20559600       0.60627600       0.20186100
Fe       4.23384000       4.33855000       1.41721000      -0.13318000      -1.43324000       0.09597500
Fe       2.86345000       2.91373000       2.68483000       0.17302100      -0.52349600       1.00407200
Fe       4.24769000       4.38560000       4.47041000       0.21709300      -1.00099100      -2.30965900
Fe       3.03022000       3.06257000       5.77904000      -0.75459500      -1.37352400       0.08051000
Fe       4.37878000       4.36472000       7.30000000      -1.17701700      -0.29867600      -1.16503300
Fe       2.87794000       5.88068000       0.04045000      -0.43081800      -1.29742500       0.03112300
Fe       4.40884000       7.14771000       1.30286000      -1.72021000       1.01269000       1.68166900
Fe       2.90803000       5.56635000       2.71915000      -0.14145300       2.31004200       0.94551100
Fe       4.38636000       7.09800000       4.27034000      -1.01156700       0.47032200      -0.24011100
Fe       2.83934000       5.83214000       5.59876000       0.94557200      -1.14291400       1.31120600
Fe       4.27827000       7.17724000       7.11836000       0.49034400      -0.27528200      -0.42785400
Fe       5.86716000       8.42257000       0.02929000      -1.08783300       0.25025200      -1.14349500
Fe       6.93503000       1.27629000       1.39235000       1.33460400       1.78501400       0.54607800
Fe       5.51271000       0.10780000       2.87781000       1.32957400      -1.42213400       0.16710100
Fe       6.97124000       1.39543000       4.24017000       1.17174600      -0.23389700       0.69597800
Fe       5.78383000       8.45457000       5.69699000      -0.45989500       0.11998100       0.50516900
Fe       7.25679000       1.26480000       7.08240000      -1.36561800       0.57112100       0.48878600
Fe       5.73440000       2.94772000       8.52702000      -0.35237500      -1.40334400       0.72784700
Fe       6.95163000       4.37921000       1.43195000       1.92780000      -1.10948900       0.50129000
Fe       5.61712000       2.91804000       2.95380000       0.09154000      -0.01115100      -1.06916700
Fe       7.17244000       4.11110000       4.27081000      -0.09939300       1.16937900       0.44011900
Fe       5.68797000       2.75423000       5.74479000       1.00489700       0.85583200       0.69896200
Fe       7.11858000       4.20827000       7.19684000       0.63745300      -0.00556100      -0.63620300
Fe       5.53924000       5.63677000       0.22837000       2.29702300       1.21389900      -2.62302500
Fe       7.12469000       7.14107000       1.64825000      -0.43366000       0.41547300      -1.06327400
Fe       5.66062000       5.67389000       2.86666000      -0.03938400       0.13146400       0.77419200
Fe       7.08940000       6.98788000       4.36436000       0.71470200       1.02577100      -0.35836300
Fe       5.76361000       5.44505000       5.64963000       0.18626600       1.98548500       1.28517800
Fe       7.20028000       6.91939000       7.07351000      -1.13228700       1.62963100      -0.23489800
54
Lattice="8.5603352 0.0 0.0 0.0 8.5603352 0.0 0.0 0.0 8.5603352" Properties=species:S:1:pos:R:3:force:R:3 config_type=phonon virial="2.4068194055764764 -1.9612536380745094 2.0735632111997084 -1.9612536380745094 0.9439877050297381 -1.1067377254469695 2.0735632111997084 -1.1067377254469695 -0.8110329034196451" energy=-440.61333403 pbc="T T T"
Fe       8.33231000       8.32935000       0.15645000       1.72654200       1.18504800      -0.68819800
Fe       1.45193000       1.41170000       1.49647000      -0.81956300       0.05472200      -0.98099300
Fe       8.43803000       0.16590000       2.89478000       0.49909300      -0.40088300       0.10280700
Fe       1.63900000       1.63728000       4.48540000      -0.38792500      -1.81146800      -0.83458700
Fe       8.51756000       0.04934000       5.59024000       0.75486000      -0.72436500      -0.45140000
Fe       1.25175000       1.17499000       7.06288000       0.85371400       1.32143800       1.09347300
Fe       8.36542000       2.80329000       8.32348000       1.60210000      -0.64730300       1.07741800
Fe       1.18456000       4.25765000       1.36547000       1.42089100      -0.60203400       0.44204800
Fe       0.07306000       2.73068000       2.70653000      -1.25396300       0.53989000       1.26234400
Fe       1.68538000       4.29780000       4.42592000      -1.84373100      -0.20925900      -1.09693400
Fe       0.02247000       2.78219000       5.59356000      -0.48513100       1.06473200       0.41979300
Fe       1.49333000       4.24532000       7.14398000      -0.99358100       0.20097700       0.12618300
Fe       0.01334000       5.79319000       0.06151000       0.49325100      -0.57390400      -0.69716900
Fe       1.47615000       7.20806000       1.67833000      -0.92799900       0.31206700      -1.51492200
Fe       8.51851000       5.75573000       2.74424000       1.33822900      -1.50298900       2.22107700
Fe       1.56526000       7.22508000       4.26940000      -0.25711200       0.29510700       0.12221800
Fe       0.29870000       5.72281000       5.59552000      -1.58755500      -0.63252900       0.09728000
Fe       1.52995000       7.08229000       7.18006000      -0.48094700       0.52042700       0.73631100
Fe       2.79916000       8.55239000       0.08410000       0.01055700      -0.03869700      -0.34733200
Fe       4.13541000       1.57035000       1.39457000       0.36720200      -0.43871000      -0.39159000
Fe       2.95828000       0.17055000       2.76699000      -0.88576900      -0.72818300       1.79992300
Fe       4.33801000       1.43564000       4.48724000      -0.68171500       0.12469700      -0.96779700
Fe       3.07397000       8.42556000       5.93831000      -0.83971100       0.98524300      -0.68644800
Fe       4.33820000       1.54406000       7.49448000      -0.35385000      -1.45114700      -2.86796700
Fe       2.66022000       2.83414000       8.47830000       0.42670200       0.28076100       0.98400200
Fe       4.31903000       4.15015000       1.41467000      -1.29788100       1.80321800      -0.94684400
Fe       2.79887000       2.94134000       2.93621000       0.23283500      -0.60823900      -1.03861100
Fe       4.23521000       4.26650000       4.15286000       0.63193700       0.73372500       0.99813900
Fe       3.14555000       2.95733000       5.85126000      -1.91731100      -1.00645400       0.05856800
Fe       4.29063000       4.48555000       7.06754000       0.71979000      -1.06830300       2.08341400
Fe       2.77561000       5.67465000       0.43750000      -0.31894700      -0.58600400      -3.51195600
Fe       4.21340000       7.07517000       1.28169000       1.20053000       0.93642800       1.76988200
Fe       2.81085000       5.72044000       2.83182000       0.36533300      -0.31501800       1.17511900
Fe       4.27799000       7.07379000       4.27434000      -0.37043200       0.28997400       0.08550200
Fe       2.83094000       5.70325000       5.92588000       1.24054100       0.76219400      -1.38478400
Fe       4.43104000       7.05959000       7.35891000      -0.73000500       0.35344500      -1.36752800
Fe       5.91666000       8.53016000       8.45524000      -1.62146600      -0.95353500       0.17786500
Fe       6.92155000       1.45057000       1.15630000       1.29905000       0.34326400       2.16230100
Fe       5.39691000       0.08302000       2.70742000       2.16803800      -0.61264700       0.43572500
Fe       6.83158000       1.34780000       4.34327000       1.22807800       0.89643900      -1.60697400
Fe       5.67873000       8.40448000       5.68337000       0.00424200      -0.30483100       0.28309800
Fe       6.95771000       1.36947000       6.85965000       0.93866300       0.48457600       1.33591200
Fe       5.70908000       2.93926000       8.47344000       0.09806800       0.79532100       0.01284800
Fe       7.16140000       4.27759000       1.34207000      -0.54092700      -0.22792200       0.50974100
Fe       5.55063000       2.93411000       2.66511000       1.70098800      -1.43296700       1.59138000
Fe       7.11141000       4.17547000       4.09731000       0.57219400       0.76220200       0.45206400
Fe       5.68117000       3.07009000       5.65587000       0.49086600      -0.83979500       0.45783900
Fe       7.26490000       4.37500000       7.17291000      -0.76396700       0.10446800      -1.59740800
Fe       5.81855000       5.72638000       0.02483000      -0.03275100      -0.28689200       0.08823500
Fe       7.19270000       6.98323000       1.64965000      -1.92863200       1.59340900      -1.39367200
Fe       5.53376000       5.69357000       2.85262000       1.26995900       0.01241900      -0.47889500
Fe       7.25774000       7.04205000       4.24934000      -1.21468700       0.44312600      -0.16043200
Fe       5.68005000       5.66489000       5.65215000       0.84956100       0.53010100      -0.27827700
Fe       7.45558000       7.02897000       6.85743000      -1.96825800       0.27466200       1.12820700
54
Lattice="8.4412937 0.0 0.0 0.0 8.4412937 0.0 0.0 0.0 8.4412937" Properties=species:S:1:pos:R:3:force:R:3 config_type=phonon virial="21.227369584416003 1.4960798615208397 -1.836341181212343 1.4960798615208397 17.856986137923563 -1.4748048474678606 -1.836341181212343 -1.4748048474678606 19.661210194515604" energy=-445.048679 pbc="T T T"
Fe       8.23314000       8.42187000       8.28708000       2.28693100      -0.09097400       1.92257600
Fe       1.28949000       1.34051000       1.48521000       0.59900800       0.38000700      -1.19558400
Fe       8.37417000       0.11001000       2.87368000       0.78242200      -0.67740300      -0.25647700
Fe       1.34701000       1.39372000       4.39411000       1.02713700       0.92097500      -1.06713500
Fe       0.02599000       8.43594000       5.61343000      -0.20361000      -0.29517900       0.64991800
Fe       1.56278000       1.28720000       7.10520000      -2.00525000       1.03727800      -0.59747200
Fe       8.26752000       2.80367000       8.36397000       1.46108500      -0.24835200       0.17052900
Fe       1.35110000       4.11749000       1.48480000       0.85715800       0.85290800      -1.50262700
Fe       0.07409000       2.90937000       2.67677000      -1.79481900      -1.21745200       2.25323200
Fe       1.42960000       4.18185000       4.26151000      -0.24451100      -0.53190800      -0.09741700
Fe       8.34597000       2.80934000       5.67316000       0.58054000      -0.61718300      -0.33205500
Fe       1.26595000       4.05781000       7.02559000       1.46730600       1.11310200       0.18822300
Fe       8.39873000       5.49472000       0.08877000       0.39326400       1.65563800      -0.72947700
Fe       1.33377000       6.93686000       1.45854000       0.13699400       1.16552100      -0.81736500
Fe       0.01394000       5.78750000       2.95010000      -0.64538800      -1.74439200      -1.03216800
Fe       1.43578000       7.06361000       4.22499000       0.18211500       0.15733700       0.76779100
Fe       8.43499000       5.60872000       5.58440000       0.43017200       0.54340000       0.53716400
Fe       1.45166000       6.88356000       7.16541000      -0.06048200       0.17240400      -0.98201800
Fe       2.73251000       8.42206000       0.06268000       0.66340200      -1.04426000       0.14479200
Fe       4.15123000       1.37663000       1.33414000       0.76521000       0.20915400       0.80665800
Fe       2.83041000       0.05287000       2.83560000      -0.40373700      -0.45697800       0.19391400
Fe       4.32056000       1.44260000       4.25391000      -0.78302700       0.35345600      -0.08345900
Fe       2.85840000       0.00786000       5.67770000      -0.26372400      -0.77515700      -0.94531600
Fe       4.22843000       1.30450000       6.98164000       0.91915400       0.95688000       0.98746900
Fe       2.85002000       2.75288000       8.40161000      -0.39717000       0.19018900       0.45746700
Fe       4.30492000       4.12082000       1.47011000      -1.14277200       1.30701800      -0.55451200
Fe       2.85645000       2.74783000       2.79835000      -0.63854100       0.03732200       0.53612100
Fe       4.26606000       4.24811000       4.02749000       0.23460200      -0.45268000       0.86935700
Fe       3.06160000       2.91673000       5.77284000      -1.70344300      -1.16692500      -1.42260600
Fe       4.37793000       4.28238000       6.99394000      -0.97124700      -0.34638000       0.84559800
Fe       2.88848000       5.35144000       0.04000000      -0.62668100       1.75233300      -0.20469800
Fe       4.18337000       7.01778000       1.45035000      -0.06434200       0.15200000      -0.52351400
Fe       2.63026000       5.59805000       2.80396000       1.92781900      -0.12714700      -0.20736000
Fe       4.27012000       7.00580000       4.06504000      -0.55129400       0.41449700       0.89085400
Fe       2.96208000       5.47801000       5.50144000      -1.31974100       1.38896400       0.99445400
Fe       4.27831000       7.11076000       6.93984000      -0.81894200      -0.90941500       0.97011600
Fe       5.65372000       0.03699000       0.11578000      -1.08373400      -0.53913500      -0.64580200
Fe       6.97514000       1.55934000       1.31665000       0.45969100      -1.39039200       1.08257600
Fe       5.71669000       0.12928000       2.92128000      -1.34970200      -0.97900600      -1.73140300
Fe       7.01561000       1.38852000       4.18385000       0.65633400       1.50745500       1.02044500
Fe       5.64776000       8.41388000       5.56298000      -0.21155100       0.41866900       0.38089200
Fe       6.91194000       1.34612000       7.08265000       0.38789300       1.13227100      -1.13589800
Fe       5.60557000       2.97430000       0.08532000      -0.22643400      -1.51477500      -1.88708900
Fe       6.98872000       4.25898000       1.30588000       0.49011100       0.37112800       1.34325900
Fe       5.66264000       2.78967000       2.74945000       0.10492700       0.34904900       0.86513900
Fe       7.02110000       4.20811000       4.23330000       0.32173000       0.35219200      -0.98729800
Fe       5.73997000       2.93473000       5.69797000      -0.84560300      -1.30500600      -0.87969200
Fe       7.02353000       4.39003000       6.95323000      -0.09483500      -0.82456200       0.80458800
Fe       5.60672000       5.77600000       8.36233000       0.23649000      -0.41285900       0.85250500
Fe       7.03916000       7.14166000       1.55642000       0.23080500      -0.28685200      -1.67874400
Fe       5.73000000       5.68541000       2.67524000      -0.86012900      -0.52708300       1.19492900
Fe       6.99590000       7.05003000       4.24097000       0.43504200      -0.01142400       0.15569900
Fe       5.55295000       5.62130000       5.55080000       1.15985200       0.83393100      -0.37915700
Fe       7.00295000       7.10907000       6.97282000       0.11351500      -1.23219600      -0.00992200
54
Lattice="8.4412937 0.0 0.0 0.0 8.4412937 0.0 0.0 0.0 8.4412937" Properties=species:S:1:pos:R:3:force:R:3 config_type=phonon virial="19.516696273401195 0.556251329133896 0.5667180203602424 0.556251329133896 19.489579734402664 -3.068700218279395 0.5667180203602424 -3.068700218279395 19.384319659580463" energy=-444.68832686 pbc="T T T"
Fe       8.39950000       0.08027000       0.00209000       0.08036300      -0.20540500      -0.16019600
Fe       1.31037000       1.41291000       1.55892000       0.31137500       0.38716100      -1.25550400
Fe       8.33163000       8.38794000       2.90946000       0.50836900       0.85040000      -0.30221700
Fe       1.37248000       1.40924000       4.23564000      -0.38996700      -0.17579100       0.51030600
Fe       8.32588000       0.04148000       5.64694000       1.24279200      -0.37775400      -0.06675200
Fe       1.50474000       1.36335000       7.01633000      -1.06412100       0.08153000      -0.73813400
Fe       0.20383000       2.78766000       8.34866000      -1.91342500      -0.38126900       0.29887300
Fe       1.54154000       4.06299000       1.38737000      -1.01912800       1.67618900       0.17537900
Fe       0.06589000       2.85677000       2.97755000      -0.80096800      -0.19498000      -0.72225800
Fe       1.48411000       4.34575000       4.36550000      -0.85124900      -0.25853600      -0.84053300
Fe       8.33042000       2.79048000       5.56987000       1.30199400       0.46702200       0.09338000
Fe       1.46215000       4.22296000       7.04818000       0.29800700       0.02833300      -0.48008500
Fe       8.40821000       5.64786000       8.27963000       0.38491500      -0.39514200       1.71298500
Fe       1.41696000       7.12107000       1.48676000      -0.14278200      -0.57303700      -0.41584400
Fe       0.03606000       5.49742000       2.65433000       0.32210200       1.10891500       1.07420300
Fe       1.22744000       7.06486000       4.24828000       1.28550400      -0.72594000      -0.20818100
Fe       8.38754000       5.60956000       5.68146000       0.28935800       0.43171800      -0.00085700
Fe       1.44454000       7.03041000       7.23269000      -0.27642400       0.12736400      -1.85021600
Fe       2.78608000       0.06066000       8.39195000       0.39533100      -0.46241300       1.39374900
Fe       4.32501000       1.62458000       1.35006000      -1.08892000      -2.71221400       1.72396800
Fe       2.74596000       0.26904000       2.76682000       1.12624000      -2.21936600       0.50338700
Fe       4.23539000       1.37458000       4.24434000      -1.11652500       0.37443500      -1.13957100
Fe       2.81594000       8.30046000       5.49577000      -0.52950100       1.08253000       0.63565100
Fe       4.19991000       1.23940000       6.96439000      -0.23963500       1.62204700       0.37404000
Fe       2.83770000       2.69476000       0.06228000       0.02697800       0.72365700      -0.90180900
Fe       4.33171000       4.20414000       1.39720000      -0.42160600       0.69549800       0.20013900
Fe       2.77894000       2.96037000       2.92827000       0.86513000      -1.27715000      -0.64154500
Fe       4.18057000       4.31012000       4.19962000       0.89689700      -0.73666700      -0.11156000
Fe       2.77171000       2.75992000       5.51156000       0.42483500       0.27991000       1.50748200
Fe       4.20392000       4.10443000       7.07595000      -0.41678300       0.60607700      -0.35749600
Fe       2.88156000       5.58878000       0.16351000      -0.22655300       0.36221800      -1.41378500
Fe       4.16499000       7.09678000       1.42957000       0.77944500      -0.10254800       0.04531100
Fe       2.91975000       5.63553000       2.83046000      -1.10767200       0.59507100      -0.27726900
Fe       4.32174000       7.02134000       4.09028000      -1.35312700      -0.49227800       1.09991200
Fe       2.91368000       5.76520000       5.66148000      -0.99973700      -0.93743100       0.17860500
Fe       4.24759000       7.10170000       7.01765000      -0.27926400      -1.42063500       0.96659400
Fe       5.56489000       8.41420000       0.09816000       0.76118000       0.56702400      -0.53653100
Fe       7.08745000       1.38478000       1.50321000      -0.35465300       0.29333100      -0.85169600
Fe       5.64052000       8.34637000       2.98848000      -0.34456300       1.14073400      -2.85806400
Fe       6.72675000       1.37988000       4.24613000       3.02052900       0.72493600      -0.78473100
Fe       5.55807000       8.39061000       5.65588000      -0.09850500      -0.10696600      -0.31544800
Fe       6.99603000       1.47652000       6.74984000      -0.43951100      -0.55709900       3.17514000
Fe       5.55942000       2.73179000       8.40996000       1.78326400       0.39216000      -1.02222500
Fe       7.16091000       4.09937000       1.31288000      -0.00842600       0.56008500      -0.24423900
Fe       5.74808000       2.90149000       2.67354000      -0.84111700      -0.29542200       1.83989900
Fe       7.03492000       4.30682000       4.25147000      -0.04486300      -0.83877300      -0.33610000
Fe       5.46050000       2.76506000       5.52304000       0.66563100       1.11617900       0.84357700
Fe       7.00076000       4.12026000       7.01113000       0.14317100       0.19143200      -0.13871400
Fe       5.72848000       5.53885000       8.41453000      -0.83084400       0.77979200       0.14682600
Fe       7.08367000       7.07207000       1.38244000      -0.09129300      -0.38937000      -0.26640300
Fe       5.84365000       5.65831000       2.74066000      -1.47803400      -0.33957900       0.10672200
Fe       6.99422000       7.07759000       4.31798000       0.41342500      -1.34826500      -0.44152500
Fe       5.52953000       5.50787000       5.63528000       0.86803800       1.10492000       0.32378500
Fe       6.94364000       7.11896000       6.99017000       0.57432400      -0.84663900       0.74957800
54
Lattice="8.4412937 0.0 0.0 0.0 8.4412937 0.0 0.0 0.0 8.4412937" Properties=species:S:1:pos:R:3:force:R:3 config_type=phonon virial="27.16234015812837 -3.49269882197508 -1.9133134086921786 -3.49269882197508 24.804687925846554 2.93164963366354 -1.9133134086921786 2.93164963366354 25.431300347865736" energy=-441.90951123 pbc="T T T"
Fe       8.26832000       8.32468000       0.06230000       2.21910000      -0.58999800      -1.22165500
Fe       1.25501000       1.35940000       1.36128000       1.42585600       0.09286500       0.07779900
Fe       8.39671000       8.16627000       2.83284000       0.02796600       1.98735100       0.77355900
Fe       1.38483000       1.42884000       3.97833000       0.97963200      -0.16980200       1.87934500
Fe       0.01156000       0.12206000       5.70017000      -0.18849700      -1.84333300      -2.17527000
Fe       1.33181000       1.32083000       6.83839000       1.01436700       2.00667100       3.11335100
Fe       8.39627000       2.83404000       0.05315000       0.30944000      -0.11084800       0.35649600
Fe       1.60011000       4.20231000       1.40768000      -2.13142900       1.17379500       0.79787900
Fe       0.08626000       2.81075000       2.89911000      -0.33145700       1.30996400      -1.88432300
Fe       1.37248000       4.33572000       4.10571000       1.25142500      -1.03582900       0.54036900
Fe       0.10389000       3.00151000       5.76795000      -0.02544300      -1.58039300      -1.64854000
Fe       1.27247000       4.27948000       7.21931000       1.36462000       0.24763600      -1.03036300
Fe       8.35307000       5.60788000       0.21686000       0.74410700      -1.00163000      -1.72955700
Fe       1.25064000       6.91112000       1.58667000       1.62977900       0.36089500      -1.58468600
Fe       8.19847000       5.59897000       2.89580000       1.89829700      -0.80708300       0.50747400
Fe       1.56535000       7.09974000       4.17798000      -1.73281600       0.17110800       0.71808900
Fe       0.09269000       5.51959000       5.50654000      -0.64840300       1.66025100       1.10985800
Fe       1.46172000       7.01715000       7.05685000      -2.01661900       1.41922600       0.12682000
Fe       2.75349000       8.39232000       0.14991000      -0.13349100       0.89650700      -1.43663500
Fe       4.28474000       1.54211000       1.21376000      -0.78399800      -1.53299000       0.60004300
Fe       2.86417000       0.06781000       2.78093000      -0.30685700      -0.41825100      -0.27036300
Fe       4.23087000       1.21979000       4.20943000       0.05650900       1.98698400      -0.38531000
Fe       2.69522000       0.18196000       5.62881000       1.27688700      -1.66379200      -0.36297100
Fe       4.16881000       1.55736000       6.90785000       0.01506600      -1.32163000       1.52462400
Fe       2.71333000       2.91946000       0.04446000       0.58859600      -1.54876000      -1.83936300
Fe       4.19493000       4.23213000       1.26651000       0.63061600       0.41098100       0.81450000
Fe       2.93050000       2.84415000       2.67407000      -0.68431500      -0.36158600       1.38272300
Fe       4.21218000       4.20544000       4.26307000      -0.10324200       0.42536400      -0.32406800
Fe       2.94406000       2.84217000       5.54669000      -2.21044400       0.55628800       0.07244300
Fe       4.19290000       4.27603000       7.07410000      -0.06251100      -0.17440200      -0.92220500
Fe       2.81475000       5.83315000       8.28089000       0.19543100      -1.61346700       2.41874300
Fe       4.22927000       7.14071000       1.48132000       0.07486500      -1.16731200      -0.66028800
Fe       2.83340000       5.73535000       2.88366000       0.72408800      -0.86702600      -0.58700600
Fe       4.31836000       7.07122000       4.38337000      -0.44553400      -0.01900100      -1.09471700
Fe       2.66864000       5.82536000       5.70033000       1.70529800      -2.17232000      -1.06726100
Fe       4.25049000       7.05892000       6.95318000       0.04812000       0.94892000       0.56825400
Fe       5.56880000       0.02522000       8.41948000       0.86223800      -0.48976600      -0.50372100
Fe       7.23587000       1.14571000       1.41465000      -2.49589600       2.38955800       0.32725600
Fe       5.66433000       0.02205000       2.72478000       0.17064100      -0.75015600       0.88258500
Fe       7.28102000       1.54560000       4.10032000      -2.12380700      -1.72015900       1.44735400
Fe       5.64847000       0.14140000       5.73591000       0.70665000      -0.92571900      -0.76623100
Fe       7.17941000       1.43583000       7.00047000      -1.17303600      -0.13851400       0.27966300
Fe       5.74487000       2.74550000       8.25436000      -0.71353300       0.50998200       1.54266000
Fe       6.95566000       4.10962000       1.65210000       0.00560600      -0.60033900      -2.06016300
Fe       5.51993000       2.58418000       2.78571000       1.20876000       1.56270600       0.40811800
Fe       6.97552000       4.15264000       4.34796000       0.29405200       0.00615000      -1.27257600
Fe       5.62949000       2.77311000       5.52781000       0.27392500       0.15028000       0.74326000
Fe       7.04217000       4.19562000       7.07070000      -0.13179300       0.73894300       0.18098100
Fe       5.53532000       5.66885000       8.41397000       1.00709200      -0.32900300       0.06430300
Fe       7.00822000       6.77992000       1.43963000      -1.88909000       2.28269100       0.13712400
Fe       5.52970000       5.45853000       2.83159000       0.00009300       1.22866700       0.37155800
Fe       6.93542000       7.02977000       4.28684000       0.52730400       0.34235200      -0.21220600
Fe       5.75149000       5.58882000       5.66555000      -1.39850800       0.04564800       0.17306700