1
Lattice="16.0 0.0 0.0 0.0 17.0 0.0 0.0 0.0 18.0" Properties=species:S:1:pos:R:3:force:R:3:Z:I:1 pbc="T T T" config_type=isolated_atom energy=-0.44878399 virial="-23.322934941380968 0.0 0.0 0.0 -34.44778114050983 0.0 0.0 0.0 -23.32088835173696"
Ni 0.00000000 0.00000000 0.00000000 0.00000000 0.00000000 0.00000000 28
1
Lattice="20.840052 0.0 0.0 0.0 20.840052 0.0 0.0 0.0 20.840052" Properties=species:S:1:pos:R:3:force:R:3:Z:I:1 config_type=isolated_atom energy=-3.38958481 pbc="T T T"
Fe       0.00000000       0.00000000       0.00000000       0.00001200      -0.00003800       0.00001700 26
108
Lattice="10.821446225289478 0.0 0.0 0.0 10.821446225289478 0.0 0.0 0.0 10.821446225289478" Properties=species:S:1:pos:R:3:force:R:3:Z:I:1 pbc="T T T" config_type=binary_alloy_simple_relaxed energy=-864.71541254 virial="10.653829590960155 1.3864496892489437 -0.11878286868952219 1.3864496892489437 7.9559886421977515 1.9956413222566485 -0.11878286868952219 1.9956413222566485 3.9751405371999433"
Fe -0.0222703 10.8456 0.16459 0.32073186 0.14613772 -0.94913043 26
Fe 0.035518 1.86059 1.83606 -0.01256637 0.58781888 -0.22899492 26
Fe 1.80769 0.057827 1.79457 0.54056953 0.02520885 0.37504216 26
Fe 1.88049 1.8235 10.7616 -0.50461557 -0.16752656 0.29190527 26
Fe 0.121274 10.9193 3.64276 -0.09691481 -0.43909858 0.09794939 26
Fe 10.8331 1.92059 5.43594 0.71132881 -0.46078505 0.14119828 26
Fe 1.85476 10.8235 5.4377 -0.1288033 0.43578497 0.07056672 26
Fe 1.84417 1.88761 3.63167 -0.00103915 -0.0222671 0.14576611 26
Ni 10.8402 0.0703826 7.19627 0.2825507 0.21385961 0.57699277 28
Fe 0.0375216 1.72455 9.11121 0.04059824 0.35207245 -0.47995948 26
Ni 1.85764 0.00711447 9.0375 -0.22949759 0.32062038 -0.06538076 28
Fe 1.79615 1.80016 7.32127 0.02205332 0.08731858 0.00450072 26
Fe 0.0671166 3.74589 10.7984 -0.35356541 -0.51395958 0.63854906 26
Fe 0.0507123 5.48217 1.90709 -0.14773893 -0.04473565 -0.56173594 26
Fe 1.81962 3.62775 1.78528 -0.11724819 0.22117573 0.76824503 26
Fe 1.98531 5.38239 0.0844848 -0.36349777 0.64128667 -0.17887391 26
Fe 0.0563038 3.7117 3.68913 -0.21399114 -0.12152489 -0.10906869 26
Ni 10.8483 5.59997 5.47182 0.26310751 -0.66885 0.03464886 28
Fe 1.87909 3.75977 5.43869 -0.84550902 -0.44140703 0.32396098 26
Fe 1.77008 5.53629 3.72458 0.46290099 -0.2825293 -0.83892733 26
Fe 10.8367 3.68276 7.19718 0.33741427 -0.03587174 0.31235316 26
Fe 10.8665 5.48258 9.0495 -0.25678533 0.03201042 0.13500751 26
Fe 1.80588 3.66491 9.14954 0.51753735 -0.34909849 -0.54560389 26
Fe 1.84416 5.43277 7.37322 -0.02072455 0.42233953 -0.42447554 26
Fe 10.8728 7.29208 10.8211 -0.4514213 -0.52520057 0.24172574 26
Fe 0.0797507 9.03063 1.8731 -0.43408591 0.25231704 0.13587211 26
Fe 1.84153 7.28096 1.71648 0.3110698 -0.63628992 0.38831439 26
Fe 1.82261 9.11167 10.9171 0.3090577 0.07610909 -0.56414716 26
Fe 10.9078 7.34267 3.62939 -0.01721486 -0.08390649 0.37038681 26
Fe 0.0558218 9.09413 5.46112 0.65182955 0.16305767 -0.1123138 26
Fe 1.88608 7.26662 5.42291 -0.2153156 0.13534319 0.98287612 26
Fe 2.01577 9.02942 3.59677 -0.56190747 0.05774146 0.1939412 26
Fe 0.0605698 7.30168 7.2866 0.47479216 -0.04863854 0.10828717 26
Fe 10.8599 9.13081 9.13952 0.05902935 0.49824491 -0.42762945 26
Fe 1.83956 7.23797 9.16275 0.40884126 0.10037886 -0.40586347 26
Fe 1.87649 9.15589 7.32363 -0.12762498 -0.58292531 -0.05598587 26
Fe 3.63239 10.8784 10.7887 0.35561759 -0.13907791 0.89677349 26
Fe 3.63675 1.76166 1.80652 0.15371326 -0.24907943 0.77495661 26
Fe 5.53554 -0.0326576 1.98695 -0.56158855 0.27673517 -0.56842043 26
Fe 5.44247 1.75281 0.0492158 0.26493242 -0.41281936 0.03683819 26
Fe 3.64586 10.9078 3.63336 0.03303912 -0.15719525 0.0954571 26
Fe 3.56859 1.87593 5.51988 0.10038097 -0.46350814 -0.23103098 26
Fe 5.41132 10.8376 5.55386 0.14879091 0.30801735 -0.82681476 26
Fe 5.51634 1.81041 3.72314 -0.57622873 -0.21368933 -0.0881036 26
Ni 3.71026 0.051364 7.22804 -0.63187805 0.01558835 0.77304532 28
Fe 3.73042 1.83648 9.06736 -0.3402625 -0.45353082 -0.73953137 26
Fe 5.54349 10.7508 8.9897 -0.29875342 0.40633083 -0.47069826 26
Fe 5.49879 1.81907 7.20169 -0.42112903 0.35168643 0.31755425 26
Fe 3.68141 3.52392 11.0648 -0.04733627 0.76830917 -1.03664705 26
Fe 3.64563 5.52413 1.9606 0.06567863 -0.37228744 -0.24912535 26
Fe 5.46619 3.55499 1.81186 0.07314715 0.52258341 0.75676817 26
Fe 5.4178 5.50236 11.019 -0.19796033 -0.35523188 -0.44641167 26
Fe 3.61927 3.63192 3.66627 0.23245594 0.13839442 -0.77243409 26
Fe 3.62854 5.41199 5.49529 0.20413491 0.45398184 -0.26101063 26
Fe 5.39279 3.64459 5.43106 0.54745375 -0.04787458 -0.03846084 26
Fe 5.52745 5.49279 3.65176 -0.01239578 -0.31944287 -0.1449827 26
Fe 3.57582 3.60115 7.27051 0.48776063 0.26463114 0.72358014 26
Ni 3.69279 5.351 9.11348 0.22311487 -0.0290183 -0.08023291 28
Fe 5.44683 3.60946 9.22845 -0.56020404 0.28605709 -0.65793591 26
Fe 5.45095 5.42324 7.16905 -0.3418388 -0.5554493 0.59357148 26
Fe 3.76835 7.22919 10.7617 -0.21670961 0.12837105 0.46554799 26
Fe 3.66056 8.95676 1.80626 0.30066091 0.70342373 -0.12964581 26
Ni 5.44222 7.34977 1.84045 0.44117097 -0.14349413 0.0009453 28
Fe 5.49579 9.15735 0.0374844 0.34549251 -0.60350461 0.12755845 26
Fe 3.72746 7.16582 3.68193 -0.15851319 0.56621378 0.02195181 26
Fe 3.62598 9.05241 5.50278 -0.00216591 -0.07062265 -0.20838725 26
Fe 5.48857 7.2358 5.48888 -0.0508577 -0.28203048 -0.09362785 26
Fe 5.45272 9.05885 3.73494 -0.59539041 -0.06839406 -0.12923127 26
Fe 3.70386 7.25492 7.29319 -1.0976185 -0.36616538 0.45367151 26
Fe 3.62606 9.12328 9.20007 0.16923984 -0.26559585 -1.14074211 26
Fe 5.45755 7.18786 8.98736 -0.1915965 0.31186164 0.44129604 26
Fe 5.4273 8.97027 7.1972 -0.00757035 0.56656644 0.58971569 26
Fe 7.2497 10.9728 10.8256 0.14015967 -0.72556704 0.61990754 26
Fe 7.23085 1.80995 1.85605 0.68052545 -0.13931644 0.40226814 26
Fe 9.12798 10.8733 1.86996 -0.66195304 -0.06048289 0.15390666 26
Fe 9.05867 1.88711 10.7969 0.21668936 0.04765788 0.68319347 26
Fe 7.35547 -0.0896608 3.70337 -0.28646538 1.02733685 0.21160633 26
Fe 7.29548 1.88992 5.38924 -0.1731826 -0.16490277 0.19549251 26
Fe 9.11327 0.128263 5.46916 0.18500745 -0.15444775 -0.07698193 26
Ni 9.09514 1.77053 3.61954 -0.1820785 0.57532032 -0.06797483 28
Fe 7.3054 10.8436 7.16992 -0.0490632 -0.00897804 0.14384346 26
Fe 7.25261 1.8074 9.00366 -0.47690205 0.28303003 0.20019505 26
Fe 8.99744 10.9266 9.07978 0.4384183 -0.60856372 -0.45859545 26
Fe 9.02639 1.91929 7.27588 0.57598394 -0.18825367 -0.01453157 26
Fe 7.26898 3.61609 10.866 -0.15940559 -0.04445555 0.32956977 26
Fe 7.2586 5.51817 1.7846 0.23205199 0.0027952 0.62878082 26
Fe 9.07018 3.63875 1.88138 0.11608328 0.11878134 0.03049915 26
Fe 9.03519 5.4324 10.8566 0.35014182 0.3620403 0.11556167 26
Fe 7.24043 3.66798 3.58636 0.22577752 -0.20274776 -0.12323733 26
Fe 7.36087 5.37453 5.45583 -0.89562913 0.257833 0.04510408 26
Fe 9.03815 3.59813 5.37748 0.27962954 0.31892028 0.10622882 26
Fe 9.03396 5.51789 3.73706 0.18725163 0.03513486 -0.61521018 26
Fe 7.19909 3.64765 7.39368 0.19485894 0.18311149 -0.83194873 26
Fe 7.15477 5.43011 9.09894 0.6295473 0.02436489 -0.07417971 26
Fe 9.06288 3.67745 9.10376 0.20726313 0.16065316 -0.56534956 26
Fe 9.08724 5.42262 7.16253 -0.16217656 0.07581228 0.76290473 26
Fe 7.28926 7.21853 10.8037 -0.51562391 0.55487427 0.44972753 26
Fe 7.30269 9.06636 1.87534 -0.19655391 -0.31814819 -0.43813964 26
Fe 9.11008 7.27894 1.88994 -0.35116239 -0.01834644 -0.27922148 26
Fe 8.97499 9.08498 0.0575647 0.22973472 -0.01175321 0.01924237 26
Fe 7.22099 7.35839 3.68733 0.30963613 -0.4829942 -0.13466518 26
Fe 7.2609 9.08387 5.50201 0.42102575 -0.38247229 0.46131568 26
Fe 9.12977 7.3034 5.45512 -0.50204432 0.17363259 0.39587529 26
Fe 9.06696 9.07995 3.73524 0.60338063 -0.13230519 -0.34386978 26
Fe 7.26128 7.19914 7.28621 0.62005798 0.07299441 -0.45069323 26
Fe 7.29966 9.00294 9.01645 -0.24409231 0.28816821 -0.17818813 26
Fe 9.07508 7.28129 9.04302 0.06471247 -0.50351523 -0.20295253 26
Fe 9.16338 9.12728 7.29353 -0.501736 -0.26016228 -0.24523939 26
108
Lattice="10.732578184356788 0.0 0.0 0.0 10.732578184356788 0.0 0.0 0.0 10.732578184356788" Properties=species:S:1:pos:R:3:force:R:3:Z:I:1 pbc="T T T" config_type=binary_alloy_simple_relaxed energy=-765.75773396 virial="-5.8235542661374415 2.3437150596870615 -1.2467626599782398 2.3437150596870615 -3.0375022866171144 0.02426758642755439 -1.2467626599782398 0.02426758642755439 -5.117247036248117"
Fe -0.120266 10.6501 0.105665 0.76272156 0.64009287 -0.49363683 26
Fe -0.0364876 1.80021 1.8724 0.18512007 -0.16184249 -0.67524926 26
Fe 1.80391 -0.0265118 1.75264 -0.30360104 -0.32376109 -0.14525489 26
Fe 1.7072 1.76269 10.7182 -0.14435943 -0.51838861 0.00435792 26
Fe -0.142753 10.6269 3.44767 0.13069136 0.19121302 0.29067001 26
Fe 10.8164 1.8378 5.29704 -0.20659765 -0.65809358 0.18226727 26
Fe 1.68278 10.5933 5.31449 0.43314853 0.79239548 -0.02920642 26
Fe 1.84733 1.72624 3.50268 -0.17540174 0.21589508 0.55805419 26
Ni 10.7799 -0.0211738 7.10606 0.02260233 0.03380944 0.0007041 28
Ni -0.0331344 1.70879 8.83931 0.01698258 0.25659465 0.32884282 28
Fe 1.7291 -0.0225448 8.92012 -0.27860668 -0.24158213 0.18876602 26
Fe 1.85458 1.7897 7.1245 -0.74261559 -0.20886883 -0.21436403 26
Fe -0.0649199 3.54555 10.6798 -0.10524967 -0.20821212 0.14784986 26
Ni 0.00648816 5.26743 1.7082 -0.24107824 0.15346402 0.57741279 28
Fe 1.80442 3.60772 1.69767 -0.09270425 -0.01429184 0.37909832 26
Ni 1.79591 5.33627 -0.00289696 0.00826154 0.31543713 -0.01041119 28
Fe -0.0425374 3.59111 3.56538 0.48110998 0.64748257 0.13422894 26
Ni 10.6683 5.50153 5.32564 0.11609733 -0.99747308 -0.0679868 28
Ni 1.73306 3.63854 5.32094 0.25864128 0.22640539 -0.14312893 28
Ni 1.78781 5.39923 3.52206 -0.01452058 -0.58313074 -0.02395312 28
Fe 10.7531 3.64833 7.13232 -0.1969594 -0.46411157 -0.16237946 26
Fe 10.7218 5.38772 9.00652 -0.0665194 0.18414797 -0.32351089 26
Fe 1.72239 3.53237 8.97258 -0.0596409 0.22235566 0.10925683 26
Fe 1.73504 5.44162 7.20197 0.25795282 0.15977224 -0.78209491 26
Ni 10.6223 7.02478 10.7759 0.52576988 0.80705831 -0.30612221 28
Ni -0.0388206 8.88599 1.7225 -0.40768601 -0.29868935 0.44107834 28
Fe 1.72018 7.11108 1.77786 -0.07647136 -0.15108604 0.13783742 26
Fe 1.70373 8.86893 10.7296 -0.193848 0.44158739 -0.10737917 26
Ni 10.7103 7.14758 3.54656 0.03051726 0.20418859 -0.08502643 28
Ni -0.0356589 8.87263 5.39261 0.0050783 0.06681272 -0.45333213 28
Fe 1.8278 7.0827 5.23378 -0.14139262 0.26173856 0.29126961 26
Fe 1.7738 8.99142 3.52042 -0.33933785 -0.76954242 0.01406214 26
Fe -0.122048 7.08567 7.06262 0.42458928 0.08091152 0.5341589 26
Fe 10.7251 8.85598 8.90932 0.06450316 -0.06580142 0.16338739 26
Ni 1.74255 7.1467 8.96619 0.01834817 -0.1665529 -0.04127614 28
Fe 1.77137 8.80936 7.12717 -0.55616046 0.1628915 0.10609993 26
Ni 3.51985 10.571 10.7084 0.37872564 0.4367706 -0.30668586 28
Fe 3.53128 1.72285 1.7262 0.79609812 -0.07480387 0.09156985 26
Fe 5.37009 -0.128962 1.72742 0.01227173 0.31186143 0.21333107 26
Fe 5.30565 1.71964 -0.0916383 -0.12399462 -0.09580622 0.23895088 26
Fe 3.66762 10.6586 3.57683 -0.02833159 0.23090519 -0.09841091 26
Fe 3.55936 1.83111 5.33298 -0.16379815 -0.17166664 -0.366244 26
Ni 5.32292 10.6731 5.35359 0.21178817 0.18120622 0.13872514 28
Ni 5.35591 1.75559 3.5867 0.00630523 -0.12421295 -0.13840535 28
Ni 3.55974 0.0270294 7.1206 -0.04198602 -0.46203485 -0.04807476 28
Fe 3.48044 1.74528 8.94194 0.41817384 -0.24858651 0.26245861 26
Ni 5.30507 10.7325 8.94975 0.01850298 -0.09609763 -0.32100877 28
Fe 5.23728 1.83941 7.08811 0.4513906 -0.56387875 0.26349513 26
Ni 3.5304 3.56775 10.6809 0.04475255 -0.0620133 0.18203122 28
Fe 3.60048 5.35475 1.83201 -0.21833405 0.45894142 -0.54471109 26
Fe 5.26764 3.56508 1.68581 0.46589779 -0.31382323 0.58049016 26
Fe 5.36272 5.40721 10.7469 -0.1592885 -0.05482609 -0.46524959 26
Ni 3.6198 3.54727 3.49751 -0.48342111 0.23157954 0.31534163 28
Ni 3.64756 5.37867 5.33754 -0.82077116 -0.39122924 0.06982688 28
Ni 5.34995 3.64907 5.34572 -0.06218486 -0.62291432 0.0770314 28
Ni 5.35477 5.29865 3.58776 0.26223208 0.39309858 -0.31098391 28
Fe 3.4767 3.65236 7.17497 0.40981603 0.42031169 -0.58890971 26
Fe 3.52932 5.3352 8.99659 0.3113302 0.5544356 -0.15298242 26
Fe 5.30819 3.57669 8.91658 0.31166582 0.03001098 0.21024087 26
Ni 5.41772 5.30579 7.09967 -0.44871494 0.2551414 0.30860127 28
Fe 3.56711 7.23312 10.6883 -0.11455094 -0.67902446 0.07285561 26
Fe 3.56816 8.86404 1.77084 0.64434172 -0.04430656 0.18370477 26
Ni 5.39865 7.10793 1.69984 -0.24076538 0.3008244 0.66610902 28
Fe 5.43121 8.85636 -0.194952 -0.31834072 0.48443625 1.05346975 26
Ni 3.62843 7.1383 3.53605 0.00266635 0.20206285 -0.06890282 28
Fe 3.51477 8.92724 5.38154 0.66014214 0.07461233 0.08481038 26
Fe 5.2445 7.12956 5.40101 0.52736394 -0.10964219 0.01474955 26
Fe 5.49004 8.87469 3.65251 -0.62915369 -0.19937369 -0.5106141 26
Ni 3.55618 7.13967 7.19111 -0.08930715 -0.52335336 -0.0865428 28
Fe 3.55183 8.94539 8.82705 -0.1311743 0.11001668 0.35826938 26
Fe 5.40518 7.15874 8.84418 -0.50155842 -1.00619941 0.1703233 26
Ni 5.30707 8.88011 7.18087 0.25467843 0.36075127 -0.56226798 28
Ni 7.13401 10.7105 10.6977 0.01033966 -0.28597581 -0.25341804 28
Fe 7.08116 1.7608 1.75812 -0.25982097 -0.24496427 0.28262347 26
Ni 8.81929 10.7468 1.73875 -0.04473117 -0.53552529 0.31099388 28
Fe 8.91153 1.73559 10.752 0.05867078 0.02659515 -0.45376697 26
Fe 7.21814 -0.037889 3.70987 -0.49879328 0.30125646 -0.57929619 26
Ni 7.07557 1.7747 5.38361 0.31053343 -0.10081463 0.11738248 28
Fe 8.99236 -0.0387947 5.41863 -0.28842658 0.36413889 -0.25834624 26
Fe 8.93567 1.7951 3.5322 -0.47919627 -0.37304382 0.62733686 26
Ni 7.03915 10.6473 7.15622 0.4747087 0.20596245 -0.1577968 28
Fe 7.12347 1.66119 8.85889 0.078511 0.3755653 0.04410705 26
Fe 9.00988 10.6962 8.91192 -0.35318342 0.45854194 -0.20562234 26
Ni 8.97822 1.75738 7.07978 -0.16744798 -0.1166758 0.1753582 28
Fe 7.11245 3.56253 10.7076 0.30374943 -0.04370711 -0.34600913 26
Ni 7.09325 5.28318 1.78482 0.30164086 0.15500203 0.09276826 28
Fe 8.88021 3.59737 1.79005 -0.04574304 0.2222506 -0.33248428 26
Ni 8.96575 5.30612 10.6742 -0.85802032 0.11469614 0.35636364 28
Fe 7.12145 3.53606 3.67108 -0.00585376 0.10281481 -0.55416412 26
Fe 7.20665 5.36809 5.35858 -0.06272901 -0.06562601 -0.13381498 26
Ni 8.9431 3.48968 5.36211 0.02473875 0.5376706 -0.06415603 28
Ni 8.98234 5.30284 3.54766 -0.41382358 0.2204471 0.1480698 28
Fe 7.18111 3.52743 7.13438 -0.32456876 -0.00298763 -0.13947539 26
Ni 7.08093 5.32753 8.9019 0.43442044 -0.08086369 0.09132098 28
Fe 8.88905 3.56115 8.89971 0.24726258 -0.45599678 0.40443297 26
Ni 8.93152 5.27443 7.16231 -0.00117044 0.43529807 -0.22452036 28
Ni 7.14472 7.09117 10.7175 0.37360413 0.14225765 -0.20052213 28
Fe 7.14895 8.84948 1.79371 0.26505699 0.20025386 -0.26491711 26
Ni 8.89312 7.13066 1.83463 0.14280678 -0.30981993 -0.45371626 28
Fe 8.94946 8.90704 -0.105325 -0.6189564 -0.48045188 0.51865141 26
Ni 7.11224 7.02051 3.55203 0.05060037 0.34813325 0.27914251 28
Ni 7.15707 8.82139 5.4125 -0.07656094 0.37590372 -0.12373973 28
Ni 8.87996 7.19849 5.39561 0.08742151 -0.42254087 -0.38382606 28
Ni 8.87837 8.90365 3.5566 -0.03840857 -0.18367977 0.21693363 28
Fe 7.18667 7.08668 7.16118 0.1722847 0.06498286 -0.25350414 26
Ni 7.13042 8.85874 8.88329 0.54726071 0.52121975 0.07992112 28
Ni 8.94971 7.13785 8.8662 -0.25670715 -0.31301848 0.2642311 28
Fe 8.95268 9.01365 7.19233 -0.10132148 -0.58329788 -0.1380228 26
