32
Lattice="7.028119614339969 0.0 0.0 0.0 7.028119614339969 0.0 0.0 0.0 7.028119614339969" Properties=species:S:1:pos:R:3:force:R:3 config_type=phonon energy=-174.68091003 virial="2.9828526764989327 -0.012038240806500615 0.024074408041666176 -0.012038240806500615 2.9384694399591536 -0.086168496203899 0.024074408041666176 -0.086168496203899 3.0823458229310856" pbc="T T T"
Ni      -0.03878160       0.02504790       0.00700439       0.46704171      -0.15906039      -0.10416348
Ni      -0.04372600       1.77750000       1.78733000       0.51307976      -0.01621185      -0.18375627
Ni       1.74514000       0.00720596       1.76126000       0.14578764       0.07133785      -0.09153321
Ni       1.78411000       1.76355000      -0.01655200      -0.31914432      -0.36441735       0.08144785
Ni       0.00301773      -0.00245434       3.50108000       0.06348884      -0.00436644       0.14827248
Ni       0.00442670       1.79137000       5.28093000       0.20545968      -0.24800086      -0.03857140
Ni       1.76480000      -0.04696390       5.25801000      -0.18185813       0.62685249       0.16473947
Ni       1.77988000       1.78344000       3.51634000      -0.09467235      -0.17015383       0.02301195
Ni       0.05518480       3.52395000       0.01548550      -0.66087308      -0.11645460      -0.12911277
Ni       0.02632800       5.26876000       1.72719000      -0.29434367       0.18028468       0.19223296
Ni       1.71626000       3.50561000       1.74779000       0.48203922       0.18088699       0.30604863
Ni       1.73817000       5.26041000      -0.05168250       0.12576540       0.38024166       0.54857298
Ni       0.02236550       3.56981000       3.51546000      -0.20567721      -0.47386620      -0.00699312
Ni       0.01301540       5.25135000       5.23269000      -0.33305171       0.23845453       0.45508895
Ni       1.78647000       3.51684000       5.29129000      -0.06288271      -0.29571433      -0.24421212
Ni       1.76725000       5.24966000       3.57994000       0.17685978       0.10093045      -0.79091672
Ni       3.56447000      -0.02058170      -0.02591410      -0.63321624       0.13406858       0.31044453
Ni       3.51562000       1.80548000       1.69395000      -0.13066617      -0.51655909       0.68103040
Ni       5.26918000       0.07514520       1.76129000      -0.07476727      -0.63694189       0.16116351
Ni       5.27334000       1.73864000       0.00300272       0.07411447       0.47936539      -0.07538078
Ni       3.52093000       0.00156396       3.53991000      -0.01186330       0.11676764      -0.29682423
Ni       3.53508000       1.72611000       5.29259000      -0.13860641       0.26700152      -0.12201056
Ni       5.26125000      -0.00073618       5.29054000       0.33201628      -0.11291428      -0.36993843
Ni       5.32155000       1.75341000       3.55309000      -0.37520151       0.09852938      -0.06370948
Ni       3.47412000       3.52376000       0.04295440       0.40464672       0.17107577      -0.30380973
Ni       3.50398000       5.32400000       1.76070000      -0.01071461      -0.34176090       0.10221190
Ni       5.24015000       3.49998000       1.78075000       0.32665431       0.34933951      -0.28696814
Ni       5.25503000       5.29418000      -0.02000510       0.27064423      -0.35007048       0.33177690
Ni       3.57748000       3.48545000       3.54291000      -0.46100377       0.15908317      -0.18526993
Ni       3.49530000       5.25279000       5.28191000       0.42091362      -0.00097861      -0.07558539
Ni       5.27319000       3.51052000       5.31814000       0.04353950       0.07115668      -0.10255791
Ni       5.27498000       5.26472000       3.51015000      -0.06350872       0.18209483      -0.03472884
32
Lattice="7.057988484530861 0.0 0.0 0.0 7.057988484530861 0.0 0.0 0.0 7.057988484530861" Properties=species:S:1:pos:R:3:force:R:3 config_type=phonon energy=-173.92449445 virial="-0.1896683160900409 -0.5587515042205361 0.08240314932945071 -0.5587515042205361 0.329344453300896 0.21489332753152973 0.08240314932945071 0.21489332753152973 -0.2049550223766801" pbc="T T T"
Ni       0.03276270       7.00619000       7.07079000      -0.30733028       0.09067979      -0.64004487
Ni       0.03186090       1.70626000       1.66853000      -0.06904952       0.53497265       0.44478174
Ni       1.72401000       0.03245940       1.75749000       0.28555969      -0.15582621       0.05015434
Ni       1.76553000       1.84571000       6.97431000       0.03368496      -0.46967034       0.20420071
Ni       7.00030000      -0.02018010       3.49371000       0.60192326       0.23686971       0.54284870
Ni      -0.01931080       1.73564000       5.38191000       0.05991878      -0.05688119      -0.57769903
Ni       1.83097000      -0.11541800       5.20614000      -0.44475624       0.82739778       0.56950493
Ni       1.67462000       1.71987000       3.54000000       0.35610472       0.19812773      -0.02512710
Ni      -0.04789450       3.55354000       7.06892000       0.08202019       0.04395005      -0.41471486
Ni       7.03001000       5.30449000       1.76431000      -0.04015447       0.01886206      -0.28770386
Ni       1.67935000       3.53635000       1.72739000       0.79548186      -0.15888962       0.25972025
Ni       1.74196000       5.26848000       0.04880050       0.11110141      -0.01991523      -0.67857499
Ni       7.09463000       3.60120000       3.44089000      -0.39404339      -0.82698464       0.87566816
Ni       7.08392000       5.29415000       5.21970000      -0.47002775      -0.14603479       0.75844929
Ni       1.80488000       3.51768000       5.21546000      -0.67675823      -0.09393824       0.50976177
Ni       1.75345000       5.30915000       3.52107000       0.25992718      -0.29324317      -0.49368835
Ni       3.41208000       7.14151000       7.05515000       0.63895090      -0.49488674       0.05971444
Ni       3.47917000       1.80953000       1.81601000      -0.07808407      -0.17067285      -0.00270314
Ni       5.35282000       7.10834000       1.77646000      -0.79455778      -0.45828817      -0.63354933
Ni       5.21789000       1.80800000       7.13600000       0.41861904      -0.81474989      -0.46727694
Ni       3.56608000      -0.07352460       3.44585000      -0.29339622       0.45165148       0.36036439
Ni       3.59022000       1.70262000       5.18991000      -0.98899379       0.13622334       0.43057420
Ni       5.20361000       7.09137000       5.30475000       0.68267076      -0.64745942       0.29051232
Ni       5.34406000       1.71656000       3.50644000      -0.01382788       0.36381563       0.11782768
Ni       3.55698000       3.48558000       0.00274966      -0.46684633       0.36726386       0.20409711
Ni       3.46273000       5.34433000       1.72722000       0.54048615      -0.61937056       0.16129125
Ni       5.34247000       3.43604000       1.81511000      -0.59143636       0.87671783      -0.09103703
Ni       5.21947000       5.28785000       7.07636000       0.33366227       0.14888662      -0.16740893
Ni       3.55269000       3.51891000       3.62245000      -0.00580823       0.02961679      -1.31436094
Ni       3.51774000       5.18701000       5.29128000       0.35172279       0.80075477       0.22511575
Ni       5.25702000       3.39138000       5.31980000       0.69103531       1.01949769      -0.30370760
Ni       5.33593000       5.34092000       3.52301000      -0.60779873      -0.71847673       0.03300997
32
Lattice="7.157896166224833 0.0 0.0 0.0 7.157896166224833 0.0 0.0 0.0 7.157896166224833" Properties=species:S:1:pos:R:3:force:R:3 config_type=phonon energy=-170.70210797 virial="-8.0885107193756 -1.0043010380694661 -0.6545741773855052 -1.0043010380694661 -5.314538197510822 -1.0097449072504223 -0.6545741773855052 -1.0097449072504223 -7.806686805572725" pbc="T T T"
Ni      -0.11142900      -0.13220500       0.06923370       0.63939274       0.50632718      -0.91249088
Ni      -0.09034450       1.79837000       1.69570000       1.26444689      -0.03212398       0.53067017
Ni       1.66076000      -0.10670900       1.88032000       1.06964741       0.47281648      -1.64825026
Ni       1.77929000       1.56047000      -0.21353400      -0.34190409       0.18657373       0.36366273
Ni      -0.05358580      -0.02268000       3.29872000      -0.07211966       0.70084992       2.54742301
Ni      -0.19295000       1.86425000       5.25308000       1.06925930      -1.14721842       0.69311681
Ni       1.68361000      -0.32742900       5.23812000       0.49685245       1.73970654       0.65098090
Ni       1.77995000       1.76348000       3.52193000      -0.69640669      -0.30868810       0.51603500
Ni      -0.17803500       3.50161000       0.02065000       0.32923095      -0.02004331      -0.08098026
Ni      -0.04920080       5.34961000       1.89705000       0.19202244      -0.88503523      -1.57288628
Ni       1.80279000       3.64732000       1.76471000      -0.30303751      -0.65214437      -0.27250523
Ni       1.66886000       5.15250000      -0.09477880      -0.27766532       1.05926914       0.48730943
Ni       0.01186120       3.54001000       3.37119000      -0.21641545      -0.04143142       0.99283269
Ni      -0.10607000       5.36827000       5.15217000      -0.05003344      -0.27645787       0.22774534
Ni       1.60502000       3.53064000       5.37560000       0.30374881      -0.43160487      -0.36201512
Ni       1.93946000       5.35302000       3.51711000      -0.97028936      -0.38154101      -0.08412543
Ni       3.76156000      -0.15296600      -0.21565900      -1.30207460       1.16463271       0.51982629
Ni       3.33525000       1.68807000       1.76152000       0.61282437       0.08761763      -0.08654728
Ni       5.35882000      -0.06353510       1.80173000      -0.45415617      -0.04997224      -0.59191421
Ni       5.28076000       1.63306000       0.36427400      -0.52603987       1.32752553      -2.48250422
Ni       3.63864000      -0.11184200       3.43280000      -1.37459363       0.72723332       0.37552015
Ni       3.57110000       1.63812000       5.23192000      -0.47520498       0.71151017       0.50422581
Ni       5.23831000       0.01321120       5.10222000       1.29886790      -0.59763592       1.10948268
Ni       5.36074000       1.79405000       3.56910000      -0.64418233       0.25192844      -1.08333951
Ni       3.49511000       3.42934000       0.05413280       0.33575200      -0.15430157      -0.55454768
Ni       3.56194000       5.49078000       1.54586000      -0.31602265      -0.92790567       0.47702170
Ni       5.15869000       3.64355000       1.90164000       0.31857099      -0.57987381      -0.72527731
Ni       5.41953000       5.34162000      -0.17701900      -0.03781215      -0.55577172       0.66043256
Ni       3.37526000       3.59734000       3.63733000       1.21732520      -0.69256234      -0.19642259
Ni       3.54115000       5.15846000       5.54348000      -0.05350834       0.16481595      -1.33811632
Ni       5.41308000       3.56564000       5.25183000      -0.86371716       0.13613412       0.10901434
Ni       5.30049000       5.45496000       3.40797000      -0.17275806      -1.50262901       1.22662297
32
Lattice="7.187180251381158 0.0 0.0 0.0 7.187180251381158 0.0 0.0 0.0 7.187180251381158" Properties=species:S:1:pos:R:3:force:R:3 config_type=phonon energy=-170.55530246 virial="-12.430896674933162 -1.5159806762748989 -0.8039807327795793 -1.5159806762748989 -9.867723082277108 -2.348103732521487 -0.8039807327795793 -2.348103732521487 -11.444273979394831" pbc="T T T"
Ni      -0.19885400       0.00537696      -0.10516900       0.82382916      -0.68597710       0.67777967
Ni       0.01625310       1.79449000       1.69317000      -0.17453755      -0.32224547       0.71352596
Ni       1.70596000      -0.06596120       1.75077000      -0.30521385      -0.14553949      -0.21598210
Ni       1.73202000       1.49278000      -0.28749300       0.26486031       0.94662954       1.63552101
Ni       0.09907810      -0.01984490       3.53719000      -1.22634106      -0.65830064      -0.30885295
Ni      -0.06301940       1.69953000       5.46914000      -0.68989308       0.14486445      -1.58367101
Ni       1.82411000      -0.11882300       5.22697000      -0.39920133      -0.56326690       0.38232941
Ni       1.73786000       1.60333000       3.53750000      -0.03492779       1.65544678       0.23058921
Ni       0.03282070       3.38477000      -0.03029430      -0.69460122       0.81060288      -0.05881908
Ni      -0.26400300       5.31488000       1.65104000       0.58287893       0.45370503       0.47209604
Ni       1.79823000       3.63922000       1.59917000      -0.64881604      -0.58878281       1.34335668
Ni       1.46721000       5.44491000       0.04904860       0.68029225      -0.44328718      -1.40324505
Ni      -0.19928400       3.73099000       3.43548000       0.84356353      -0.59433370       0.46516003
Ni      -0.19962900       5.35172000       5.28533000       1.73924201      -1.02615921      -0.42182285
Ni       1.58092000       3.44360000       5.32420000       0.86973409       0.60089308      -0.37514501
Ni       2.10757000       5.33314000       3.58741000      -1.49974419      -0.52165154      -0.69344675
Ni       3.51961000      -0.17573500      -0.19463100       0.16676532       0.32177070       0.32556991
Ni       3.36651000       1.63609000       1.74599000       0.68712558       0.71368318      -0.48809004
Ni       5.23989000      -0.06436680       1.79014000       0.32354649       0.18373306      -0.06380541
Ni       5.33668000       1.59261000       0.09452930      -0.65011359       1.04361922      -0.33057571
Ni       3.54547000       0.07716800       3.53392000       0.61141528      -0.46011728       0.21215139
Ni       3.64229000       1.61521000       5.50835000       0.04673238       0.70624026      -1.30668277
Ni       5.49918000      -0.19009600       5.21236000      -1.56652108       1.66073713      -0.37585693
Ni       5.33717000       1.94528000       3.56151000       0.77085071      -1.64726886       0.02818225
Ni       3.44679000       3.41622000       0.00363300       0.25717012       0.16328185      -0.63301355
Ni       3.39224000       5.41458000       1.45204000       1.00705249      -0.54210243       1.09376548
Ni       5.21953000       3.61770000       1.76656000       0.13478690      -0.60650700      -1.18168163
Ni       5.39750000       5.41030000      -0.23886600      -0.67860241      -0.62025254       1.59090149
Ni       3.70179000       3.48392000       3.56562000      -1.83147870      -0.11710199       0.30970571
Ni       3.63735000       5.21046000       5.34582000      -0.65439530       0.13895409       0.29562080
Ni       5.27405000       3.47379000       5.56941000       0.59394008      -0.37173100      -0.72410245
Ni       5.10997000       5.34603000       3.40342000       0.65060155       0.37046390       0.38853823
108
Lattice="10.575410487464586 0.0 0.0 0.0 10.575410487464586 0.0 0.0 0.0 10.575410487464586" Properties=species:S:1:pos:R:3:force:R:3 config_type=phonon energy=-588.34820525 virial="-0.3276941632601381 -0.6196783667653615 0.9623873116797734 -0.6196783667653615 -0.4277892109560986 -0.036553884121693164 0.9623873116797734 -0.036553884121693164 -0.44917048362154344" pbc="T T T"
Ni      -0.03000060      10.47510000       0.05505320       0.05500344       0.51695680      -0.25607300
Ni       0.03238240       1.69827000       1.75856000      -0.11306408       0.38541217       0.23503919
Ni       1.82869000      10.57930000       1.76719000      -0.53033370      -0.40437500       0.13556852
Ni       1.68555000       1.68533000       0.01560780       0.43353827       0.51428376      -0.38039606
Ni       0.03491390      10.51490000       3.48856000      -0.15694971       0.14070861       0.08728561
Ni      10.54370000       1.79532000       5.20578000       0.17684839      -0.69680432       0.26450218
Ni       1.71290000      10.50830000       5.27548000       0.16525734       0.64713136       0.26827019
Ni       1.78724000       1.76367000       3.52909000      -0.20092189      -0.25873335       0.14913448
Ni      -0.02041720       0.02532990       6.99664000       0.08778235      -0.20535025       0.24660359
Ni      -0.04175900       1.69686000       8.86336000       0.38418102       0.18820587      -0.43212377
Ni       1.73253000      -0.04198150       8.79967000       0.21163114       0.10083563      -0.09505467
Ni       1.72745000       1.76017000       7.07017000       0.20856082      -0.53362934       0.00418152
Ni      -0.02835820       3.55563000      10.48330000       0.42193580      -0.06906419       0.84461235
Ni      -0.01822660       5.32101000       1.75897000      -0.00381922      -0.40899199      -0.28777708
Ni       1.76215000       3.48101000       1.76425000      -0.33879827       0.43934895      -0.17636210
Ni       1.75832000       5.32884000      10.54930000      -0.16970024      -0.29496709      -0.02510067
Ni       0.01903810       3.48856000       3.55214000       0.00076514       0.27696905      -0.49023483
Ni      -0.02388730       5.32253000       5.24065000       0.30414452      -0.35523478       0.33692581
Ni       1.80520000       3.42724000       5.32871000      -0.52869880       0.81906904      -0.25433603
Ni       1.72473000       5.34382000       3.46190000       0.29361225      -0.40436964       0.26065603
Ni      10.61960000       3.46067000       7.02954000      -0.72572782       0.34774667       0.02736485
Ni      10.55190000       5.29551000       8.80785000      -0.02932268       0.13421081      -0.40709646
Ni       1.70506000       3.58124000       8.76911000       0.26046570      -0.72647288       0.58435824
Ni       1.74239000       5.24762000       7.08237000      -0.25283256       0.49511801      -0.58504344
Ni      10.61450000       7.11595000      10.53460000      -0.37769421      -0.30569212      -0.03226875
Ni      -0.03309880       8.78982000       1.75015000       0.26727907       0.09762353       0.08529421
Ni       1.71204000       7.06420000       1.69159000       0.54567241       0.04369409       0.49791555
Ni       1.80990000       8.82227000      10.55870000      -0.15928712      -0.13186621      -0.01436144
Ni      -0.03061060       7.06181000       3.49836000       0.03247860      -0.16775692       0.16615215
Ni      -0.08252050       8.73833000       5.33550000       0.51683689       0.20443387      -0.28395638
Ni       1.80401000       6.98113000       5.25962000      -0.64065498       0.29478661       0.26416639
Ni       1.77004000       8.76842000       3.63390000      -0.28556972      -0.04402602      -0.96971836
Ni       0.00381654       6.99181000       7.03503000      -0.18034794       0.38172247       0.04780752
Ni      10.52390000       8.85348000       8.78145000       0.35369463      -0.01495757      -0.07345044
Ni       1.72429000       7.11102000       8.78400000       0.30480351      -0.31000704      -0.02341047
Ni       1.80391000       8.82406000       7.02664000      -0.57462006      -0.10063707       0.10838241
Ni       3.49740000      -0.01063880      10.55500000       0.13568319      -0.02812386      -0.13000256
Ni       3.48536000       1.77447000       1.77654000       0.22632224      -0.02178321      -0.12668655
Ni       5.21094000      10.53850000       1.75347000       0.35724572       0.15199853       0.07691034
Ni       5.19188000       1.73956000      -0.00397039       0.39731000       0.19341314      -0.01346795
Ni       3.49440000       0.00663691       3.55368000       0.10269454      -0.07039863       0.02108242
Ni       3.52701000       1.73704000       5.37746000      -0.11722776      -0.29408193      -0.27700160
Ni       5.27417000       0.00034701       5.28112000       0.03440538      -0.06642836       0.17479839
Ni       5.26160000       1.73451000       3.52734000      -0.22395593       0.19106679      -0.12211990
Ni       3.60661000      -0.07813240       7.06530000      -0.55807738       0.57018947       0.02443395
Ni       3.47993000       1.75631000       8.79534000       0.00101589       0.10848486       0.05662360
Ni       5.30413000       0.02581750       8.81212000       0.06935288       0.10772540      -0.06905956
Ni       5.29908000       1.86125000       7.09672000      -0.13581700      -0.78694078      -0.16526067
Ni       3.47887000       3.54717000      10.57170000      -0.03414118      -0.22020879      -0.30382458
Ni       3.50978000       5.27466000       1.70339000      -0.09860835       0.27399359       0.56321184
Ni       5.21430000       3.54537000       1.73663000       0.11394246      -0.11956029      -0.06736292
Ni       5.27278000       5.35345000      10.55530000      -0.02333968      -0.98405306       0.01106921
Ni       3.44030000       3.54660000       3.60459000       0.32102823      -0.08143050      -0.76920663
Ni       3.51655000       5.29830000       5.34126000       0.01999097      -0.23530915      -0.33552416
Ni       5.19426000       3.46862000       5.21543000       0.67708975       0.22931897       0.63073999
Ni       5.27338000       5.21419000       3.56659000      -0.21069357       0.54804278      -0.67557436
Ni       3.47926000       3.57674000       7.06840000       0.47299606      -0.66064218      -0.03656118
Ni       3.49600000       5.25184000       8.72472000       0.27099974       0.51857647       0.65025104
Ni       5.31411000       3.53618000       8.86167000      -0.34557680      -0.02322632      -0.07432286
Ni       5.33658000       5.25601000       7.06835000      -0.19929008      -0.00515227      -0.11169167
Ni       3.56876000       6.98098000      10.50180000      -0.34569530       0.70006300       0.38468976
Ni       3.48265000       8.80594000       1.78867000       0.11214960      -0.30914458      -0.32169743
Ni       5.29031000       7.05501000       1.79783000      -0.27285324      -0.27157151      -0.31262524
Ni       5.32770000       8.86654000      -0.04826510      -0.26310679      -0.37855416       0.44548821
Ni       3.57781000       7.05663000       3.57787000      -0.45201395      -0.55974386      -0.45482872
Ni       3.49374000       8.81246000       5.27408000       0.60159098      -0.07161667       0.21298799
Ni       5.35067000       6.96474000       5.31464000      -0.16695288       0.64309095      -0.11753577
Ni       5.19845000       8.76482000       3.48325000       0.82212289       0.46631961       0.57469049
Ni       3.46705000       7.07516000       6.99463000       0.62835762      -0.29417917       0.46755449
Ni       3.59719000       8.74917000       8.80467000      -0.31498414       0.30805849       0.00647852
Ni       5.35247000       7.00050000       8.80638000      -0.49060781       0.23954190      -0.41977878
Ni       5.31639000       8.79132000       7.04679000      -0.02346957      -0.14889416      -0.14963826
Ni       7.08017000      10.65820000       0.03541350      -0.34110547      -0.49854082      -0.08321473
Ni       6.94786000       1.75296000       1.76206000       0.20029769      -0.00507742      -0.17139273
Ni       8.75495000       0.01111490       1.80859000       0.19424648      -0.54123466      -0.43799568
Ni       8.88234000       1.82554000       0.09376280      -0.43658006      -0.60332180      -0.24258164
Ni       7.00290000      10.57850000       3.56333000      -0.00824471      -0.38799466      -0.49317891
Ni       7.04596000       1.76235000       5.24388000      -0.04546094       0.21034151       0.02089958
Ni       8.85781000      10.53550000       5.18026000      -0.26700995       0.20035385       0.22010497
Ni       8.75851000       1.72643000       3.38983000       0.26717522       0.51303189       0.90917891
Ni       7.07261000      -0.01282080       7.02214000      -0.42609251       0.41781729       0.13640757
Ni       7.12321000       1.79979000       8.85979000      -0.72224199      -0.29401681      -0.36384164
Ni       8.76078000       0.10782900       8.86522000       0.33505332      -0.80406851      -0.20143566
Ni       8.78666000       1.65951000       6.94307000       0.18338351       0.72962047       0.47024700
Ni       7.05648000       3.46707000      -0.01970040      -0.09590690       0.41951806       0.32077044
Ni       7.07577000       5.27648000       1.64677000      -0.18041612       0.05983333       0.60453427
Ni       8.80708000       3.54585000       1.75136000       0.35781060       0.06313789      -0.17439050
Ni       8.82804000       5.32427000      10.46120000       0.08566190      -0.24868110       0.76507771
Ni       7.01206000       3.55222000       3.35297000       0.09755963      -0.36098359       1.02210343
Ni       6.99429000       5.19250000       5.22344000       0.43620275       0.12198003       0.32938439
Ni       8.86036000       3.51677000       5.31478000      -0.61461533      -0.23963477      -0.30973713
Ni       8.82137000       5.18998000       3.56187000      -0.20432600       0.70187095      -0.43607957
Ni       7.01671000       3.48236000       7.08229000       0.50916485       0.21120708      -0.41553000
Ni       7.11964000       5.26086000       8.82936000      -0.39469115      -0.07747645      -0.28282011
Ni       8.84591000       3.44753000       8.79160000      -0.09190738       0.44754383      -0.37006751
Ni       8.74495000       5.28873000       6.96680000       0.49040151      -0.26528623       0.52476076
Ni       6.96361000       7.00086000      10.56690000       0.78110224       0.67265614      -0.08349781
Ni       7.03643000       8.75506000       1.77494000      -0.02203245       0.53545381      -0.28955066
Ni       8.81375000       7.02754000       1.68916000      -0.10620188      -0.07787565       0.14877488
Ni       8.79084000       8.79041000      10.51550000      -0.32246356       0.27665184       0.52509852
Ni       7.07106000       7.05443000       3.48238000      -0.22509613      -0.45476471       0.31664774
Ni       7.07537000       8.86128000       5.31887000      -0.29051945      -0.52779819      -0.41873401
Ni       8.74601000       7.07094000       5.29558000       0.11874106      -0.31981853      -0.09999183
Ni       8.80597000       8.73659000       3.47056000      -0.09746835       0.48696725       0.24246778
Ni       7.08755000       7.03582000       7.09252000      -0.24195209       0.09730800      -0.37128685
Ni       7.03164000       8.84401000       8.79585000       0.10779236      -0.00055278       0.21708015
Ni       8.81353000       7.10560000       8.81681000      -0.01993271      -0.40019619      -0.27189271
Ni       8.79009000       8.87493000       7.10535000       0.14563698      -0.27213237      -0.33101416
108
Lattice="10.592493137682533 0.0 0.0 0.0 10.592493137682533 0.0 0.0 0.0 10.592493137682533" Properties=species:S:1:pos:R:3:force:R:3 config_type=phonon energy=-587.75342393 virial="-5.158635903039281 -0.8524936735441209 -0.5809447350226679 -0.8524936735441209 -6.026734060519366 -1.2629297441836445 -0.5809447350226679 -1.2629297441836445 -5.9520533107980516" pbc="T T T"
Ni      -0.06893450      10.53140000       0.09068930       0.23903364      -0.05105202      -0.46923000
Ni       0.01505620       1.73282000       1.78339000      -0.22028377       0.03753611      -0.27113268
Ni       1.84013000      10.56290000       1.72309000      -0.61236806      -0.04869493       0.23922916
Ni       1.77606000       1.72774000       0.05392990      -0.33282047       0.48990269      -0.41571022
Ni      -0.07036510      10.49270000       3.52316000       0.56502937       0.58401939      -0.19637817
Ni      10.57960000       1.76814000       5.25621000      -0.02969154      -0.36262244      -0.16265082
Ni       1.72919000      10.57540000       5.23402000       0.19234992       0.14609851      -0.10848005
Ni       1.75000000       1.76963000       3.46384000       0.15313050      -0.10993318       0.26535265
Ni      -0.08589620       0.04759290       6.99267000       0.26761786      -0.39813096       0.06811704
Ni       0.03148310       1.59322000       8.94590000      -0.62541118       0.86645552      -0.66140329
Ni       1.75585000       0.03256420       8.82321000       0.22214525      -0.40187408      -0.02121086
Ni       1.76832000       1.70853000       7.08588000       0.03084207      -0.10556207      -0.39153865
Ni      -0.03216530       3.56704000      10.53320000      -0.02182581      -0.71042005       0.77965507
Ni       0.01558930       5.29819000       1.75946000      -0.21548115      -0.08142712       0.13656898
Ni       1.73780000       3.55149000       1.74696000      -0.05817911       0.02065973       0.20860068
Ni       1.72165000       5.28884000      10.58760000       0.08038964       0.31941815      -0.42567558
Ni      -0.05306840       3.49196000       3.48736000       0.43027920       0.16616362       0.13358606
Ni       0.04914860       5.27876000       5.18594000      -0.35536016       0.06880914       1.06003119
Ni       1.77101000       3.49095000       5.35853000      -0.07996785       0.00909180      -0.57591270
Ni       1.72369000       5.38190000       3.57613000       0.36121982      -0.47290819      -0.49094625
Ni      10.62070000       3.40053000       7.06530000      -0.49500519       0.36214600       0.18700626
Ni      10.54360000       5.18499000       8.82240000      -0.20007784       0.79650486      -0.28918287
Ni       1.67085000       3.50275000       8.82518000       0.63401761      -0.38547036       0.19369115
Ni       1.72822000       5.19697000       7.13950000      -0.32790623       0.74872554      -0.54050840
Ni      10.58160000       7.04682000      10.62000000      -0.03099931       0.06601852      -0.32590373
Ni       0.07006830       8.81598000       1.76883000      -0.55060774      -0.17447181      -0.01711043
Ni       1.78661000       7.06833000       1.69438000      -0.15681872      -0.12892665       0.38678062
Ni       1.75266000       8.83434000      10.51950000      -0.10719071       0.09762533       0.23448005