1
Lattice="18.0 0.0 0.0 0.0 19.0 0.0 0.0 0.0 20.0" Properties=species:S:1:pos:R:3:force:R:3 config_type=isolated_atom energy=-0.75480209 virial="-0.04941555866697615 0.0023505318646577017 0.0029725104824098554 0.0023505318646577017 -0.05124183372430346 -0.001542758000529176 0.0029725104824098554 -0.001542758000529176 -0.04828085006094729" pbc="T T T"
Ni       0.00000000       0.00000000       0.00000000       0.00000047      -0.00000003      -0.00000022
32
Lattice="7.063758218991258 0.0 0.0 0.0 7.063758218991258 0.0 0.0 0.0 7.063758218991258" Properties=species:S:1:pos:R:3:force:R:3 config_type=phonon energy=-174.2926794 virial="-2.028971795913884 -0.18167354319210377 -0.03335155464859175 -0.18167354319210377 -2.349730729802172 0.3041145828119077 -0.03335155464859175 0.3041145828119077 -2.6476222577656254" pbc="T T T"
Ni       7.06464000      -0.05623570       7.01917000      -0.00408723       0.35614032       0.09576047
Ni       7.01456000       1.72990000       1.81227000       0.39311279      -0.02094066      -0.22064712
Ni       1.77210000       0.00383886       1.77851000      -0.20543424       0.00572197       0.01998049
Ni       1.71927000       1.75241000       0.00591027       0.22319243      -0.20797102       0.07482166
Ni       7.03710000       6.98878000       3.54537000       0.06458800       0.51561146      -0.24299088
Ni       0.02761140       1.83606000       5.30506000      -0.29282266      -0.58691505      -0.27625516
Ni       1.74532000       0.00546596       5.25249000      -0.00568637       0.19775895       0.32166441
Ni       1.74759000       1.82943000       3.58762000       0.11536638      -0.31601601      -0.52190098
Ni       7.07473000       3.49489000      -0.02146750       0.02326732       0.30276036       0.02727484
Ni       0.01007300       5.25378000       1.73761000      -0.21819395       0.25240800       0.12017554
Ni       1.73310000       3.55448000       1.74442000       0.08108986      -0.33208771       0.37774798
Ni       1.75868000       5.29173000       6.99462000      -0.14030270       0.26077267       0.51661120
Ni       6.96691000       3.53839000       3.52353000       0.35576411      -0.07179715      -0.16911872
Ni      -0.00931987       5.25909000       5.25992000      -0.33222281      -0.00101865       0.30306494
Ni       1.84279000       3.56637000       5.31952000      -0.69954279      -0.73063510      -0.22889747
Ni       1.74613000       5.26592000       3.65522000       0.15042001       0.03795640      -1.23154986
Ni       3.53245000       7.01297000       6.96733000      -0.22433546       0.06820692       0.61869433
Ni       3.60587000       1.71553000       1.66266000      -0.82788086       0.05385268       0.55689308
Ni       5.31628000      -0.01336660       1.69659000      -0.17672677      -0.26908758       0.39352010
Ni       5.27615000       1.74526000       7.00679000       0.65330441      -0.37906868       0.11550504
Ni       3.50364000       0.03541430       3.56681000      -0.03165162      -0.09200636      -0.35620102
Ni       3.58818000       1.77737000       5.39793000      -0.87315057      -0.06735066      -0.87304616
Ni       5.26591000       7.04206000       5.24012000       0.35933759       0.05345582       0.29249301
Ni       5.23736000       1.76784000       3.55305000       0.41657427      -0.18513697      -0.24990204
Ni       3.44915000       3.54782000       0.01490600       0.53504267      -0.01925367       0.21740284
Ni       3.47067000       5.33060000       1.79606000       0.30118506      -0.18632851      -0.21888576
Ni       5.30550000       3.43583000       1.59883000      -0.22484525       0.86493205       1.03633736
Ni       5.28629000       5.30065000      -0.05392970       0.04294819      -0.20127693       0.30738483
Ni       3.54600000       3.48795000       3.47669000      -0.06204899       0.12973592      -0.05082959
Ni       3.52313000       5.23030000       5.29311000       0.27788615       0.45960495      -0.18823298
Ni       5.26729000       3.50070000       5.32405000       0.10893078       0.30762637      -0.17258549
Ni       5.23058000       5.29702000       3.53123000       0.21692226      -0.19965413      -0.39428890
32
Lattice="7.0861830410888285 0.0 0.0 0.0 7.0861830410888285 0.0 0.0 0.0 7.0861830410888285" Properties=species:S:1:pos:R:3:force:R:3 config_type=phonon energy=-173.31399179 virial="-3.422149992343876 -0.490869114094069 -0.07214855559802699 -0.490869114094069 -2.2346014093377047 0.27127917810497837 -0.07214855559802699 0.27127917810497837 -3.3175868663253705" pbc="T T T"
Ni       0.08335810       6.98809000      -0.06091010      -0.41193245       0.36339918      -0.21848000
Ni       0.00507397       1.68417000       1.63058000       0.17374094       0.86376693       0.55292575
Ni       1.69308000       0.08577820       1.79294000       0.60796283      -0.84766547      -0.11275922
Ni       1.76953000       1.78193000       6.95994000      -0.09544127      -0.00938532       0.53499353
Ni       6.97758000       7.11232000       3.47255000       0.69953043       0.11281766       1.06851695
Ni       7.03666000       1.83609000       5.41528000       0.08838877      -0.56790743      -1.04202175
Ni       1.78893000       7.00378000       5.16333000      -0.32816872       0.28061212       0.45068902
Ni       1.79172000       1.73989000       3.53024000      -0.31867949       0.03881378      -0.16684773
Ni       7.01460000       3.55092000       0.00897526       0.33931353       0.23208764      -0.14914354
Ni       6.97133000       5.36806000       1.83479000       0.69633795      -0.71483525      -0.97042090
Ni       1.63671000       3.49628000       1.75823000       0.91599872       0.09855596      -0.18854324
Ni       1.73409000       5.25865000       0.06955510      -0.08314542      -0.25753318      -0.49175529
Ni       0.00736479       3.55853000       3.46310000      -0.39721656      -0.90512884       0.69575460
Ni      -0.01394010       5.31731000       5.26348000       0.12949100      -0.34119977       0.30646358
Ni       1.84963000       3.45194000       5.22068000      -1.20064041       0.54766554       0.76426578
Ni       1.70293000       5.23181000       3.51621000       0.45022467       0.46184056      -0.29991065
Ni       3.34487000      -0.05514910      -0.04080130       0.96868551       0.15775338      -0.03734471
Ni       3.50460000       1.79349000       1.65186000      -0.24332580      -0.52693174       0.83555325
Ni       5.43053000       0.04669410       1.70551000      -1.60918853      -0.66163555      -0.23868079
Ni       5.29646000       1.75851000       0.04332890      -0.21568260      -0.30992565      -0.54520177
Ni       3.57689000       6.98674000       3.47891000       0.05110124       0.51961464       0.29228328
Ni       3.51961000       1.75364000       5.27835000       0.15230656      -0.58087495       0.10040028
Ni       5.23777000       0.07005920       5.39812000       0.28926425      -0.56687895      -0.59413025
Ni       5.31828000       1.74188000       3.44826000      -0.24433646       0.06438092       0.77052053
Ni       3.59630000       3.54009000       0.04972640      -0.88040920       0.19100499      -0.05645589
Ni       3.49557000       5.41047000       1.74688000       0.40983098      -0.87831256       0.07283495
Ni       5.29149000       3.41024000       1.78646000       0.03205198       1.16021433      -0.03133869
Ni       5.29716000       5.27571000      -0.10617100      -0.12701371       0.46945613       0.67887180
Ni       3.54681000       3.52108000       3.62123000       0.18287582      -0.09079137      -1.56334595
Ni       3.48023000       5.17243000       5.28531000       0.29708421       1.15279220       0.23400169
Ni       5.20283000       3.45196000       5.38292000       0.97534350       0.32276653      -0.73211118
Ni       5.40396000       5.24862000       3.56459000      -1.30435227       0.22146355       0.08041656
32
Lattice="7.080337345352368 0.0 0.0 0.0 7.080337345352368 0.0 0.0 0.0 7.080337345352368" Properties=species:S:1:pos:R:3:force:R:3 config_type=phonon energy=-173.85935041 virial="-4.423562826136632 0.090273398789642 0.2536018469473544 0.090273398789642 -3.1664979269213003 -0.4236816693457063 0.2536018469473544 -0.4236816693457063 -4.363572248933983" pbc="T T T"
Ni       0.06220770       7.04649000       7.02367000      -0.08488547      -0.20696686       0.16950832
Ni      -0.02158450       1.69225000       1.77378000       0.28775462       0.36715559      -0.41673410
Ni       1.82274000      -0.01029370       1.83420000      -0.73651496      -0.11192044      -0.52273450
Ni       1.64185000       1.75235000       7.00306000       0.80705101       0.04632538       0.22818041
Ni       6.99604000       0.06832470       3.57386000       0.12998577      -0.65711521       0.07267179
Ni      -0.05821760       1.82352000       5.28777000       0.02491208      -0.21567614      -0.25998406
Ni       1.73631000      -0.00365774       5.21113000       0.06160861      -0.38704718       0.60903834
Ni       1.75738000       1.69752000       3.53760000      -0.05419714       0.55785988      -0.22419542
Ni       0.04227940       3.58507000       7.04483000      -0.62185684      -0.37118101       0.20633438
Ni       7.09473000       5.23228000       1.77250000      -0.19168437       0.42561444      -0.14496399
Ni       1.71103000       3.44060000       1.79697000       0.13102632       0.20779933      -0.11864941
Ni       1.82900000       5.21832000       0.10058500      -0.52072469       0.70303843      -0.61174311
Ni       7.03315000       3.49906000       3.46793000       0.01802690      -0.15656423       0.42533085
Ni       7.05327000       5.25303000       5.27559000       0.00966637       0.45691211       0.10402813
Ni       1.72879000       3.55124000       5.25452000       0.33897600      -0.18040276       0.05525005
Ni       1.66712000       5.29925000       3.53171000       0.43412294      -0.08304821      -0.08945116
Ni       3.46629000       7.00945000       7.07012000       0.15339650       0.17410669      -0.17432891
Ni       3.49715000       1.72882000       1.59685000       0.12571076      -0.34313163       0.66869153
Ni       5.44457000       7.04341000       1.74813000      -1.04738767       0.01538303      -0.20045772
Ni       5.32951000       1.76460000       6.98438000      -0.31603325       0.13054796       0.61300175
Ni       3.57367000      -0.01315940       3.51449000       0.10982260       0.09236139       0.22571842
Ni       3.44461000       1.75446000       5.24423000       0.55568965       0.29337271       0.51544250
Ni       5.24874000       7.10903000       5.41448000       0.12679890      -0.33696293      -1.08339922
Ni       5.23603000       1.78384000       3.41662000       0.12986400      -0.48478169       0.98588492
Ni       3.49309000       3.58887000       0.13365700       0.37297270      -0.31360848      -1.19659535
Ni       3.53151000       5.34358000       1.88384000       0.21105405      -0.22173119      -0.75200536
Ni       5.26149000       3.40088000       1.74407000       0.57055667       1.03857092      -0.61680274
Ni       5.34937000       5.37855000       7.07369000      -0.45191873      -0.78058272       0.13620186
Ni       3.54598000       3.49058000       3.39126000      -0.47877742       0.03265850       0.92645201
Ni       3.48997000       5.25357000       5.22698000       0.14257123       0.18111736       0.35270957
Ni       5.25928000       3.56287000       5.31112000      -0.16947688      -0.21811431      -0.04171204
Ni       5.32465000       5.24730000       3.50905000      -0.06811026       0.34601127       0.15931225
32
Lattice="7.07472381212689 0.0 0.0 0.0 7.07472381212689 0.0 0.0 0.0 7.07472381212689" Properties=species:S:1:pos:R:3:force:R:3 config_type=phonon energy=-173.6018967 virial="-2.9919468325747727 -0.7364229126062483 0.6090796939507288 -0.7364229126062483 -0.8047042834597109 0.3750566430045722 0.6090796939507288 0.3750566430045722 -1.932773827420858" pbc="T T T"
Ni       0.11789800       6.99023000       7.06441000      -0.75865841       0.55694481      -0.34619419
Ni       0.04163400       1.65138000       1.63919000      -0.28095353       1.11726122       0.44427048
Ni       1.71483000       0.01333160       1.80210000       0.36130333      -0.56606368      -0.23396010
Ni       1.76669000       1.79458000       6.88292000      -0.08400185      -0.20904566       0.99437981
Ni       6.98027000      -0.01803440       3.62787000       0.40366446       0.17806734      -0.55420957
Ni      -0.06394980       1.82410000       5.32036000       0.34985205      -0.47127830      -0.07876681
Ni       1.79070000      -0.14881100       5.27941000      -0.01069943       0.83010050      -0.25833380
Ni       1.68005000       1.72218000       3.50615000       0.03210010      -0.04390715       0.16762613
Ni      -0.07958220       3.62458000       6.99345000       0.68687545      -0.65240287       0.47865485
Ni       7.05166000       5.27710000       1.72082000      -0.09479994       0.07500026       0.33060250
Ni       1.75733000       3.49151000       1.84473000      -0.25715338       0.20020564      -0.74203313
Ni       1.82172000       5.30042000       0.03697290      -0.20556527      -0.43291874       0.15805523
Ni       6.96423000       3.52554000       3.48130000       0.73445095      -0.07084514       0.26195220
Ni       7.05009000       5.36381000       5.33908000       0.04878949      -0.71293889      -0.25298143
Ni       1.87215000       3.47454000       5.26206000      -1.18791504       0.67143115      -0.09738262
Ni       1.68753000       5.34628000       3.49479000       0.17325296      -0.58453212       0.18995178
Ni       3.48615000       7.10055000       7.02090000       0.00826087      -0.32092819       0.38128616
Ni       3.42446000       1.67310000       1.69435000       0.56763175       0.70340292       0.45857025
Ni       5.36110000       7.11453000       1.66684000      -0.34299428      -0.44582526       0.51520902
Ni       5.26245000       1.74447000       7.08261000      -0.01367722       0.36113251      -0.35749962
Ni       3.61668000      -0.11272700       3.42455000      -0.58222373       0.89863369       0.86371359
Ni       3.45391000       1.67120000       5.11701000       0.41109910       0.44783701       0.67682533
Ni       5.19674000       7.13122000       5.34090000       0.60660369      -0.52151179      -0.05128208
Ni       5.31848000       1.72459000       3.56037000      -0.34215749       0.26378490      -0.74301022
Ni       3.51365000       3.58767000       0.04251080       0.13150287      -0.81129462       0.10415542
Ni       3.60469000       5.30840000       1.88256000      -0.34718074      -0.35087594      -1.21694853
Ni       5.30953000       3.49869000       1.73006000      -0.24962310      -0.10494548       0.21586236
Ni       5.24682000       5.32661000       7.06172000       0.21256767       0.00585648       0.11837279
Ni       3.48496000       3.57978000       3.52951000       0.56050208      -0.56089498      -0.27831211
Ni       3.53181000       5.19276000       5.37296000       0.05322469       0.81498190      -0.70741884
Ni       5.29922000       3.50561000       5.28493000      -0.49630386      -0.02072631       0.12793925
Ni       5.32812000       5.31278000       3.63407000      -0.08777424      -0.24370520      -0.56909408
32
Lattice="7.0388988770795295 0.0 0.0 0.0 7.0388988770795295 0.0 0.0 0.0 7.0388988770795295" Properties=species:S:1:pos:R:3:force:R:3 config_type=phonon energy=-174.16486859 virial="2.5219394389916903 0.16409212171438367 -0.11714961031805618 0.16409212171438367 2.9971020960795247 -0.02492310263202818 -0.11714961031805618 -0.02492310263202818 2.219298911108188" pbc="T T T"
Ni       7.08861000      -0.05693640       6.95508000      -0.08970451       0.21835248       0.75789596
Ni       7.04326000       1.66796000       1.76729000      -0.10886568       0.59628365      -0.15566712
Ni       1.83360000       0.00546907       1.75725000      -0.70890356      -0.20298128       0.37302530
Ni       1.70928000       1.70966000      -0.02576690       0.50282219       0.58418830       0.39115716
Ni       6.99020000       7.08473000       3.60532000       0.12962211      -0.38793299      -0.39147287
Ni       0.02549230       1.78806000       5.33013000      -0.42547692      -0.04314343      -0.52599995
Ni       1.76109000       0.05996480       5.27836000       0.14256600      -0.78424010      -0.20731040
Ni       1.76256000       1.77780000       3.58404000      -0.14581701      -0.11558983      -0.71046127
Ni       7.05869000       3.57170000      -0.07912120      -0.00434217      -0.37492599       0.95436283
Ni      -0.00637230       5.25405000       1.75423000       0.29153114      -0.01151841       0.19062370
Ni       1.75479000       3.47872000       1.79650000      -0.38012295       0.25729438      -0.25315842
Ni       1.84482000       5.29335000       7.06515000      -0.88243284      -0.23512761      -0.13964776
Ni       6.98560000       3.49730000       3.55368000       0.31665316       0.08256588      -0.46347372
Ni      -0.06530970       5.25400000       5.29418000       0.81678607       0.36050896      -0.42888493
Ni       1.76810000       3.54751000       5.25192000       0.14147468       0.05544144       0.19627094
Ni       1.74026000       5.29139000       3.57166000      -0.00953661       0.09115802      -0.41274997
Ni       3.49450000       6.95729000       7.02546000       0.18560291       0.97529832       0.21661841
Ni       3.48753000       1.74541000       1.71490000       0.46962582      -0.14221629      -0.00171592
Ni       5.36436000      -0.07585990       1.70622000      -0.52800064       0.75094631       0.44183236
Ni       5.28475000       1.73375000       6.92990000      -0.18903514       0.38217560       1.02793221
Ni       3.54545000       0.01537650       3.54131000       0.03948339      -0.01330032      -0.14991003
Ni       3.48092000       1.78504000       5.25082000       0.38683431       0.14598187       0.40108501
Ni       5.23383000       7.01615000       5.39207000       0.24358709       0.49951526      -1.37219979
Ni       5.25160000       1.79908000       3.53325000       0.14031091      -0.41801818      -0.11587845
Ni       3.47078000       3.58531000       0.03415480       0.30826296      -0.69196067      -0.29012133
Ni       3.57697000       5.31182000       1.79863000      -0.34387166      -0.13050001      -0.04165058
Ni       5.23880000       3.50001000       1.69134000       0.63718566      -0.07625774       0.03708972
Ni       5.28108000       5.33939000      -0.04640920       0.02296061      -0.93186520       0.75264846
Ni       3.54063000       3.51966000       3.41730000      -0.24488607      -0.00644042       0.72581614
Ni       3.56312000       5.27533000       5.27257000      -0.74953657      -0.08655128      -0.20494535
Ni       5.26695000       3.57739000       5.29593000      -0.31954379      -0.79034180       0.04159953
Ni       5.25495000       5.24323000       3.57465000       0.35476711       0.44320109      -0.64270984
32
Lattice="7.041841393485127 0.0 0.0 0.0 7.041841393485127 0.0 0.0 0.0 7.041841393485127" Properties=species:S:1:pos:R:3:force:R:3 config_type=phonon energy=-174.17739312 virial="1.3028164459857643 0.12315264322357675 0.3547623145993057 0.12315264322357675 2.594519184148735 -0.22230027289042387 0.3547623145993057 -0.22230027289042387 1.938215419915481" pbc="T T T"
Ni       6.98397000       0.03806060       6.96975000       0.18019481      -0.30940833       0.77814395
Ni       7.06499000       1.83179000       1.79203000      -0.36886623      -0.45649941      -0.01671470
Ni       1.79375000       0.06907560       1.63096000      -0.40084539      -0.82644943       1.07015999
Ni       1.68908000       1.69072000       0.00461400       0.48974255       0.98156526      -0.17315977
Ni       7.08539000       6.99346000       3.51151000      -0.02187577       0.18805895      -0.25376656
Ni       0.00937481       1.72141000       5.22823000      -0.30758423       0.33189186       0.04704817
Ni       1.70491000       0.02745160       5.30813000       0.44940894      -0.46872339      -0.49085925
Ni       1.78566000       1.80267000       3.55659000      -0.14927919      -0.33913355      -0.32652705
Ni       6.97193000       3.51509000      -0.00079629       0.70185431       0.06085577       0.30408201
Ni      -0.05746080       5.34649000       1.74252000       0.83467412      -0.37832168       0.21804223
Ni       1.82483000       3.55928000       1.72551000      -0.66672763      -0.39030669      -0.06299736
Ni       1.75435000       5.28249000       6.94854000      -0.39548974      -0.00593214       0.53159577
Ni       7.08588000       3.53785000       3.56491000      -0.30317028       0.01002458      -0.52621668
Ni      -0.03547680       5.22313000       5.27168000       0.54408366       0.38643586      -0.07206372
Ni       1.75917000       3.45763000       5.34663000      -0.04797050       0.23775960      -0.17590609
Ni       1.85059000       5.18157000       3.52893000      -0.59080084       0.88715237       0.04514976
Ni       3.53887000       7.01726000       6.96011000       0.06534699       0.28097384       0.47000407
Ni       3.51916000       1.73987000       1.79063000       0.22139597       0.28550263      -0.46692983
Ni       5.21370000      -0.05617160       1.80164000       0.24489660       0.70522701      -0.14880730
Ni       5.30260000       1.78249000       6.96280000      -0.13614153      -0.33380526       0.96126718
Ni       3.46599000       0.04326650       3.58072000       0.07552543      -0.43920327      -0.26049677
Ni       3.57045000       1.75166000       5.34931000      -0.37574029       0.01791103      -0.45604751
Ni       5.31912000       6.95474000       5.25883000      -0.31814165       0.71335247      -0.17150371
Ni       5.25738000       1.77146000       3.52977000       0.30268710      -0.15982290      -0.09517339
Ni       3.53594000       3.54038000      -0.03490970       0.05546059      -0.48501821       0.44319464
Ni       3.44679000       5.26864000       1.66240000       0.46104996       0.36538063       0.63094153
Ni       5.27302000       3.58919000       1.79606000      -0.10697386      -0.49314515      -0.06498257
Ni       5.31714000       5.31873000       0.03154900      -0.32766187      -0.29590603      -0.18275074
Ni       3.51037000       3.49545000       3.57606000       0.33516002      -0.00734411      -0.23377605
Ni       3.56121000       5.23462000       5.32988000      -0.35614971       0.28549729      -0.43578487
Ni       5.32589000       3.52861000       5.31385000      -0.35628740      -0.12795138      -0.47026727
Ni       5.20528000       5.29179000       3.55356000       0.26822506      -0.22061821      -0.41489812
32
Lattice="7.050734786341728 0.0 0.0 0.0 7.050734786341728 0.0 0.0 0.0 7.050734786341728" Properties=species:S:1:pos:R:3:force:R:3 config_type=phonon energy=-174.72538636 virial="-1.3922242387248025 -0.20384630135404555 -0.09088132259700812 -0.20384630135404555 -0.9857973115494171 0.08068197541517523 -0.09088132259700812 0.08068197541517523 -1.4165478344055948" pbc="T T T"
Ni      -0.02813540       0.00711584       0.00163654       0.03797025      -0.07590244      -0.07905161
Ni      -0.02136440       1.79518000       1.74443000       0.18803766      -0.35693200       0.11960585
Ni       1.76440000       0.00259651       1.68607000       0.02761997       0.00725020       0.47190224
Ni       1.72197000       1.78856000      -0.01180300       0.19866861      -0.31859895      -0.11805551
Ni       0.00325079      -0.02170400       3.49883000       0.12339472       0.19435692       0.13866584
Ni      -0.02261290       1.74403000       5.25243000      -0.01420211       0.00578894       0.19394504
Ni       1.75938000      -0.04573690       5.28883000      -0.08851880       0.41390812       0.01143054
Ni       1.72792000       1.77459000       3.52053000       0.31108236      -0.34825569      -0.12620888
Ni      -0.05120160       3.51022000       0.02145030       0.14330887       0.17929030      -0.29405518
Ni       0.01907770       5.29609000       1.82537000      -0.30244086      -0.06463873      -0.54133321
Ni       1.78151000       3.52137000       1.69746000      -0.02939098      -0.10050315       0.36832577
Ni       1.73060000       5.24592000      -0.01767790       0.13095236       0.24408256       0.24699071
Ni       0.04307830       3.51137000       3.49536000      -0.36726112       0.12787925       0.12309150
Ni       0.06135220       5.26418000       5.28121000      -0.63359130       0.14236775      -0.02298469
Ni       1.73769000       3.51295000       5.30102000       0.02479003      -0.16272473      -0.02749305
Ni       1.77574000       5.26201000       3.49974000       0.09468178       0.20487171       0.01940322
Ni       3.52301000       0.02372580      -0.01436920      -0.01318343      -0.19759864       0.06982039
Ni       3.55723000       1.75810000       1.76295000      -0.57780345       0.09472306       0.09099483
Ni       5.27342000       0.03277560       1.78572000       0.01789008      -0.51276908      -0.13575194
Ni       5.25014000       1.76976000       0.02918720       0.39593063      -0.17444777      -0.48995663
Ni       3.49741000      -0.02521310       3.54102000      -0.08609744       0.09286727      -0.25302954
Ni       3.53742000       1.73957000       5.28122000      -0.17150927       0.04007061      -0.13484738
Ni       5.28437000      -0.01244880       5.25141000       0.07524459       0.06805139       0.37989496
Ni       5.26968000       1.75042000       3.48696000       0.09083566       0.17225439       0.34313786
Ni       3.54770000       3.47343000      -0.05700460      -0.06978149       0.29259248       0.27199038
Ni       3.53111000       5.24276000       1.71084000      -0.05313451       0.27504234       0.29274275
Ni       5.29292000       3.52290000       1.75760000      -0.21989230       0.24972429       0.32872248
Ni       5.28774000       5.30037000       0.02864630       0.14240345      -0.04418505      -0.25324365
Ni       3.46072000       3.52073000       3.57586000       0.48430897      -0.01239020      -0.41119811
Ni       3.50175000       5.27281000       5.34731000       0.15412189       0.05123543      -0.32517085
Ni       5.31780000       3.53653000       5.23102000      -0.13333763      -0.13793225       0.31047441
Ni       5.25400000       5.31411000       3.58580000       0.11890282      -0.34947832      -0.56875852
32
Lattice="7.086370383025322 0.0 0.0 0.0 7.086370383025322 0.0 0.0 0.0 7.086370383025322" Properties=species:S:1:pos:R:3:force:R:3 config_type=phonon energy=-173.2455248 virial="-3.106509189863766 -0.1621531095537291 0.018658220388597147 -0.1621531095537291 -2.639424017272472 -0.026388881610515207 0.018658220388597147 -0.026388881610515207 -2.2026365242437147" pbc="T T T"
Ni       0.00065424       6.98932000       0.03389430      -0.35940510       0.49488783      -0.70208893
Ni       0.02005500       1.68144000       1.76689000      -0.69712841       1.08868713      -0.52092180
Ni       1.61540000       0.03203090       1.74053000       1.72563115      -0.99566432      -0.04699240
Ni       1.80227000       1.80511000       7.16314000      -0.62792077      -0.54823966      -1.28246671
Ni       7.12404000       7.09473000       3.41225000      -0.46238565      -0.59533256       1.60914150
Ni       7.11408000       1.84936000       5.25084000      -0.31209899      -0.94950716       0.51044995
Ni       1.77610000       7.01889000       5.30385000      -0.28933686       0.46164432      -0.33607617
Ni       1.66755000       1.85760000       3.51800000       0.89958615      -0.70213159       0.08959162
Ni       7.03850000       3.44464000      -0.02083560      -0.18825326       0.37947415       0.15246092
Ni       7.01168000       5.25153000       1.78921000       0.56303326      -0.00813025      -0.52523100
Ni       1.75117000       3.47384000       1.67052000      -0.23388038       0.76783309       0.74965391
Ni       1.67361000       5.24456000      -0.10367800       0.54038950       0.02578273       0.36484359
Ni      -0.03344680       3.56375000       3.49292000       0.11620199      -0.01891130       0.20604378
Ni      -0.08585550       5.21939000       5.35077000       0.10536731       0.38279362      -0.47980768
Ni       1.76766000       3.53242000       5.20904000      -0.05065283      -0.04040828       0.81087235
Ni       1.79071000       5.23646000       3.56160000      -0.05665976       0.52321181      -0.62515216
Ni       3.43101000       0.08120580      -0.05141270       0.59420709      -0.78307300       0.32177737
Ni       3.48250000       1.77104000       1.83491000       0.18363932       0.04906612      -0.27591172
Ni       5.33399000      -0.06926630       1.76512000      -0.77361607       0.14695603      -0.25825690
Ni       5.21780000       1.79044000       0.15016200       0.75522000      -0.58983925      -0.80833882
Ni       3.49350000       7.15397000       3.44092000       0.02677818      -0.69924317       0.64514733
Ni       3.62532000       1.84160000       5.32694000      -0.72536256      -1.45471720      -0.53315289
Ni       5.41136000      -0.01961950       5.33753000      -0.56671883       0.36080051      -0.31680142
Ni       5.35136000       1.76601000       3.44461000      -0.17878173      -0.60305116       0.66206278
Ni       3.53607000       3.44828000      -0.08123610      -0.16630380       0.75936682       0.42051127
Ni       3.43950000       5.17157000       1.59255000       0.02262415       0.91149510       1.05857083
Ni       5.30856000       3.52629000       1.85251000      -0.26367769       0.07618895      -0.95708209
Ni       5.16093000       5.30145000      -0.00803168       0.87297713      -0.10983750      -0.11080767
Ni       3.61280000       3.51011000       3.61176000      -0.78868544       0.06456155      -1.04820692